   This run of MOLCAS is using the pymolcas driver

                             OPE
                             OPE          NMOL  CASOP  ENMOLC A   SO
                 OPE        NMOLC        AS  OP EN  MO LC     AS  OP
                OPENM       OL CA        SO  PE NM  OL CA     SOP EN
                OP EN      MO   LC       AS  OP ENMOL  CASO   PENMOL
                OP  EN     MO   LC       AS  OP EN     MO     LC ASO
               OP   E  NMOL  C  AS       OP  EN MO     LC     AS  OP
               OP  E   NMO   LC AS        OPEN  MO     LCASOP EN   M
               O  PEN   MO  LCA  SO
            OPE   NMO   L   CAS    OP
        OPENMOL  CASOP     ENMOL   CASOPE
     OPENMOLCA   SOPENMOLCASOPEN   MOLCASOPE
    OPENMOLCAS   OP           EN   MOL    CAS
    OPENMOLCAS       OP  ENM        O     LCA
    OPENMOLCAS    OPEN  MOLCASO     P  E  NMO
    OPENMOLCAS     OP               E  N  MOL
    OPENMOLCA   SO           PENM   O  L  CAS    OPEN    MO    LCAS
    OPENMOLCA   SOP           ENM   O  L  CAS   OP  EN  MOLC  AS   O
    OPENMOLCA   SOPE           NM      O  LCA   S      OP  EN MO
    OPENMOLC                AS         O  PEN   M      OL  CA  SOPE
    OPENMO        LCASOPE  NMOL        C  ASO   P      ENMOLC     AS
    OPE     NMO      LCA  SO     P     E   NM   OL  CA SO  PE N   MO
          OPENMOLCA            SOPE   NMO        LCAS  O    P  ENMO
     OPENMOLCASOPENMOLCASOPENMOLCASOPENMOLCA
        OPENMOLCASOPENMOLCASOPENMOLCASOPE
            OPENMOLCASOPENMOLCASOPENM
               OPENMOLCASOPENMOLCA        version: 22.06
                   OPENMOLCASO
                       OPE                tag: 110-gf028b1278

 OpenMolcas is free software; you can redistribute it and/or modify it
 under the terms of the GNU Lesser General Public License version 2.1.
 OpenMolcas is distributed in the hope that it will be useful, but it
 is provided "as is" and without any express or implied warranties.
 For more details see the full text of the license in the file
 LICENSE or in <http://www.gnu.org/licenses/>.

                 Copyright (C) The OpenMolcas Authors
           For the author list and the recommended citation,
                   consult the file CONTRIBUTORS.md

           *************************************************
           * pymolcas version py2.23                       *
           *   build d53e6f8e18683222a6e02cb84ce98eb3      *
           *   (after the EMIL interpreter by V. Veryazov) *
           *************************************************

configuration info
------------------
Host name: Arpits-MacBook-Air.local (macOS)
C Compiler ID: AppleClang
C flags: -std=gnu99
Fortran Compiler ID: GNU
Fortran flags: -fno-aggressive-loop-optimizations -cpp -fdefault-integer-8 -fmax-stack-var-size=1048576
Definitions: _MOLCAS_;_I8_;_LINUX_;_DARWIN_;_DARWIN_C_SOURCE
Parallel: OFF (GA=OFF)


   ------------------------------------------------------------------------
  |
  |           Project: li2
  |    Submitted from: /Users/arpitarunkumaar/Desktop/untitled folder
  |      Scratch area: /var/folders/c3/rhj39hv90vx5ff1jpz11zd8m0000gn/T/li2
  |   Save outputs to: /Users/arpitarunkumaar/Desktop/untitled folder
  |            Molcas: /Users/arpitarunkumaar/build
  |
  | Scratch area is NOT empty
  |
  |    MOLCAS_DRIVER = /Users/arpitarunkumaar/build/pymolcas
  |    MOLCAS_NPROCS = 1
  |    MOLCAS_SOURCE = /Users/arpitarunkumaar/OpenMolcas
  | MOLCAS_STRUCTURE = 0
  |
   ------------------------------------------------------------------------

++ ---------   Input file   ---------

&VIBROT
RoVibrational spectrum
Title = Vib-Rot spectrum for Li2(X) state-2
Atoms = 0 Li  0 Li
Potential
   1.1338356256484985        190.46962725256398
   1.3228082299232482        33.441810453353654
   1.5117808341979981        8.8217782453542863
   1.7007534384727478        3.1273763936624577
   1.8897260427474976        1.3774627038361218
   2.0786986470222475       0.71205435960025087
   2.2676712512969970       0.41385998362856702
   2.4566438555717469       0.26148121385173062
   2.6456164598464964       0.17463295342304730
   2.8345890641212463       0.12028690171280729
   3.0235616683959963        8.3460229143215298E-002
   3.2125342726707458        5.6836137127226759E-002
   3.4015068769454957        3.6638959903968329E-002
   3.5904794812202452        2.0828620684037954E-002
   3.7794520854949951        8.2448994336368799E-003
   3.9684246897697451       -1.8208159856496163E-003
   4.1573972940444950       -9.8444070372710902E-003
   4.3463698983192440       -1.6179227181346238E-002
   4.5353425025939940       -2.1109025703623628E-002
   4.7243151068687439       -2.4871714016769693E-002
   4.9132877111434938       -2.7669570825406838E-002
   5.1022603154182438       -2.9674119546664907E-002
   5.2912329196929928       -3.1029529866264286E-002
   5.4802055239677427       -3.1855943461669672E-002
   5.6691781282424927       -3.2252930917821374E-002
   5.8581507325172426       -3.2302857507938078E-002
   6.0471233367919925       -3.2073904514918705E-002
   6.2360959410667416       -3.1622612519485283E-002
   6.4250685453414915       -3.0995941018640488E-002
   6.6140411496162415       -3.0232915964437914E-002
   6.8030137538909914       -2.9365958907436221E-002
   6.9919863581657413       -2.8421978688919641E-002
   7.1809589624404904       -2.7423282001956210E-002
   7.3699315667152403       -2.6388337517480241E-002
   7.5589041709899902       -2.5332415062545376E-002
   7.7478767752647393       -2.4268115719394669E-002
   7.9368493795394901       -2.3205807487365920E-002
   8.1258219838142391       -2.2153981307444039E-002
   8.3147945880889900       -2.1119541996915080E-002
   8.5037671923637390       -2.0108047392323792E-002
   8.6927397966384881       -1.9123906938924882E-002
   8.8817124009132389       -1.8170548583160348E-002
   9.0706850051879879       -1.7250560586117118E-002
   9.2596576094627387       -1.6365813066393984E-002
   9.4486302137374878       -1.5517562786529722E-002
   9.6376028180122368       -1.4706543857680535E-002
   9.8265754222869877       -1.3933046521138326E-002
   10.015548026561737       -1.3196985834271018E-002
   10.204520630836488       -1.2497961836533889E-002
   10.393493235111237       -1.1835312537258273E-002
   10.582465839385986       -1.1208160830063253E-002
   10.771438443660736       -1.0615456203778141E-002
   10.960411047935485       -1.0056011903019092E-002
   11.149383652210236       -9.5285380090641952E-003
   11.338356256484985       -9.0316707734340688E-003
   11.527328860759734       -8.5639984445564608E-003
   11.716301465034485       -8.1240837774375716E-003
   11.905274069309234       -7.7104833983389284E-003
   12.094246673583985       -7.3217642006775220E-003
   12.283219277858734       -6.9565169646151242E-003
   12.472191882133483       -6.6133674129458878E-003
   12.661164486408234       -6.2909849339817855E-003
   12.850137090682983       -5.9880892146152304E-003
   13.039109694957734       -5.7034550319320062E-003
   13.228082299232483       -5.4359154495459954E-003
   13.417054903507232       -5.1843636559432806E-003
   13.606027507781983       -4.9477536679142231E-003
   13.795000112056732       -4.7251001041314026E-003
   13.983972716331483       -4.5154772135162875E-003
   14.172945320606232       -4.3180173215981556E-003
   14.361917924880981       -4.1319088365921993E-003
   14.550890529155732       -3.9563939362725498E-003
   14.739863133430481       -3.7907660374021778E-003
   14.928835737705231       -3.6343671318891180E-003
   15.117808341979980       -3.4865850581289304E-003
   15.306780946254730       -3.3468507622218297E-003
   15.495753550529479       -3.2146355918754735E-003
   15.684726154804231       -3.0894486557044585E-003
   15.873698759078980       -2.9708342721749778E-003
   16.062671363353729       -2.8583695254383785E-003
   16.251643967628478       -2.7516619395835861E-003
   16.440616571903227       -2.6503472782347282E-003
   16.629589176177980       -2.5540874727740014E-003
   16.818561780452729       -2.4625686796197286E-003
   17.007534384727478       -2.3754994648152138E-003
   17.196506989002227       -2.2926091125577402E-003
   17.385479593276976       -2.2136460531226960E-003
   17.574452197551729       -2.1383764048271167E-003
   17.763424801826478       -2.0665826241560185E-003
   17.952397406101227       -1.9980622578815725E-003
   18.141370010375976       -1.9326267908917371E-003
   18.330342614650725       -1.8701005834627174E-003
   18.519315218925477       -1.8103198918337120E-003
   18.708287823200227       -1.7531319661364770E-003
   18.897260427474976       -1.6983942199791842E-003
   19.086233031749725       -1.6459734662662695E-003
   19.275205636024474       -1.5957452141370080E-003
   19.464178240299226       -1.5475930222177935E-003
   19.653150844573975       -1.5014079036971258E-003
   19.842123448848724       -1.4570877790407299E-003
   20.031096053123473       -1.4145369724675389E-003
   20.220068657398222       -1.3736657485942355E-003
   20.409041261672975       -1.3343898859333935E-003
   20.598013865947724       -1.2966302841909247E-003
   20.786986470222473       -1.2603126025516576E-003
   20.975959074497222       -1.2253669263737172E-003
   21.164931678771971       -1.1917274599228121E-003
   21.353904283046724       -1.1593322429764353E-003
   21.542876887321473       -1.1281228893111378E-003
   21.731849491596222       -1.0980443452535339E-003
   21.920822095870971       -1.0690446666313384E-003
   22.109794700145720       -1.0410748126036650E-003
   22.298767304420473       -1.0140884549794922E-003
   22.487739908695222       -9.8804180175381096E-004
   22.676712512969971       -9.6289343369958280E-004
   22.865685117244720       -9.3860415295461761E-004
   23.054657721519469       -9.1513684263327814E-004
   23.243630325794221       -8.9245633657593804E-004
   23.432602930068970       -8.7052929842662682E-004
   23.621575534343719       -8.4932410929681350E-004
   23.810548138618469       -8.2881076333821374E-004
   23.999520742893218       -8.0896077060377562E-004
   24.188493347167970       -7.8974706663021365E-004
   24.377465951442719       -7.7114392822094321E-004
   24.566438555717468       -7.5312689495464133E-004
   24.755411159992217       -7.3567269598239079E-004
   24.944383764266966       -7.1875918171377263E-004
   25.133356368541719       -7.0236526002434596E-004
   25.322328972816468       -6.8647083664894327E-004
   25.511301577091217       -6.7105675944985333E-004
   25.700274181365966       -6.5610476627749373E-004
   25.889246785640715       -6.4159743616103485E-004
   26.078219389915468       -6.2751814358954019E-004
   26.267191994190217       -6.1385101566195795E-004
   26.456164598464966       -6.0058089190275128E-004
   26.645137202739715       -5.8769328655553562E-004
   26.834109807014464       -5.7517435318112944E-004
   27.023082411289217       -5.6301085140127410E-004
   27.212055015563966       -5.5119011564035191E-004
   27.401027619838715       -5.3970002572836708E-004
   27.590000224113464       -5.2852897924102974E-004
   27.778972828388213       -5.1766586545866008E-004
   27.967945432662965       -5.0710004083797842E-004
   28.156918036937714       -4.9682130589603934E-004
   28.345890641212463       -4.8681988341463836E-004
   28.534863245487212       -4.7708639787898371E-004
   28.723835849761961       -4.6761185607212800E-004
   28.912808454036714       -4.5838762875025405E-004
   29.101781058311463       -4.4940543333169463E-004
   29.290753662586212       -4.4065731753504677E-004
   29.479726266860961       -4.3213564390782555E-004
   29.668698871135710       -4.2383307519047221E-004
   29.857671475410463       -4.1574256046447109E-004
   30.046644079685212       -4.0785732203701155E-004
   30.235616683959961       -4.0017084301760281E-004
   30.424589288234714       -3.9267685554531440E-004
   30.613561892509459       -3.8536932962791534E-004
   30.802534496784212       -3.7824246255685522E-004
   30.991507101058957       -3.7129066886436415E-004
   31.180479705333710       -3.6450857079117061E-004
   31.369452309608462       -3.5789098923541508E-004
   31.558424913883208       -3.5143293515520045E-004
   31.747397518157960       -3.4512960139898786E-004
   31.936370122432706       -3.3897635493971499E-004
   32.125342726707458       -3.3296872949005647E-004
   32.314315330982211       -3.2710241847753969E-004
   32.503287935256957       -3.2137326835975354E-004
   32.692260539531709       -3.1577727226093455E-004
   32.881233143806455       -3.1031056391243314E-004
   33.070205748081207       -3.0496941188064752E-004
   33.259178352355960       -2.9975021406701270E-004
   33.448150956630705       -2.9464949246543536E-004
   33.637123560905458       -2.8966388816366187E-004
   33.826096165180203       -2.8479015657562003E-004
   34.015068769454956       -2.8002516289275223E-004
   34.204041373729709       -2.7536587774291277E-004
   34.393013978004454       -2.7080937304611630E-004
   34.581986582279207       -2.6635281805706477E-004
   34.770959186553952       -2.6199347558494753E-004
   34.959931790828705       -2.5772869838151157E-004
   35.148904395103457       -2.5355592568891266E-004
   35.337876999378203       -2.4947267993946220E-004
   35.526849603652956       -2.4547656359958996E-004
   35.715822207927701       -2.4156525615100366E-004
   35.904794812202454       -2.3773651120226376E-004
   36.093767416477206       -2.3398815372443232E-004
   36.282740020751952       -2.3031807740473976E-004
   36.471712625026704       -2.2672424211263377E-004
   36.660685229301450       -2.2320467147280638E-004
   36.849657833576202       -2.1975745054007330E-004
   37.038630437850955       -2.1638072357133977E-004
   37.227603042125700       -2.1307269189000516E-004
   37.416575646400453       -2.0983161183854197E-004
   37.605548250675199       -2.0665579281514815E-004
   37.794520854949951       -2.0354359539050896E-004
   37.983493459224704       -2.0049342950104160E-004
   38.172466063499449       -1.9750375271513211E-004
   38.361438667774202       -1.9457306856898404E-004
   38.550411272048947       -1.9169992496898079E-004
   38.739383876323700       -1.8888291265751700E-004
   38.928356480598453       -1.8612066373952120E-004
   39.117329084873198       -1.8341185026690701E-004
   39.306301689147951       -1.8075518287839778E-004
   39.495274293422696       -1.7814940949232780E-004
   39.684246897697449       -1.7559331405002311E-004
   39.873219501972201       -1.7308571530763473E-004
   40.062192106246947       -1.7062546567425026E-004
   40.251164710521699       -1.6821145009434350E-004
   40.440137314796445       -1.6584258497262958E-004
   40.629109919071198       -1.6351781713950348E-004
   40.818082523345950       -1.6123612285536692E-004
   41.007055127620696       -1.5899650685217604E-004
   41.196027731895448       -1.5679800141066034E-004
   41.385000336170194       -1.5463966547169601E-004
   41.573972940444946       -1.5252058378041698E-004
   41.762945544719699       -1.5043986606175011E-004
   41.951918148994444       -1.4839664622598664E-004
   42.140890753269197       -1.4639008160325401E-004
   42.329863357543942       -1.4441935220565365E-004
   42.518835961818695       -1.4248366001591255E-004
   42.707808566093448       -1.4058222830156338E-004
   42.896781170368193       -1.3871430095355631E-004
   43.085753774642946       -1.3687914184829891E-004
   43.274726378917691       -1.3507603423230504E-004
   43.463698983192444       -1.3330428012839490E-004
   43.652671587467196       -1.3156319976274968E-004
   43.841644191741942       -1.2985213101188625E-004
   44.030616796016695       -1.2817042886882792E-004
   44.219589400291440       -1.2651746492770084E-004
   44.408562004566193       -1.2489262688604105E-004
   44.597534608840945       -1.2329531806418300E-004
   44.786507213115691       -1.2172495694093722E-004
   44.975479817390443       -1.2018097670510108E-004
   45.164452421665189       -1.1866282482207387E-004
   45.353425025939941       -1.1716996261504302E-004
   45.542397630214694       -1.1570186486023575E-004
   45.731370234489439       -1.1425801939559821E-004
   45.920342838764192       -1.1283792674253767E-004
   46.109315443038938       -1.1144109974010340E-004
   46.298288047313690       -1.1006706319125576E-004
   46.487260651588443       -1.0871535352069433E-004
   46.676233255863188       -1.0738551844389044E-004
   46.865205860137941       -1.0607711664683594E-004
   47.054178464412686       -1.0478971747618975E-004
   47.243151068687439       -1.0352290063940251E-004
   47.432123672962192       -1.0227625591444620E-004
   47.621096277236937       -1.0104938286886144E-004
   47.810068881511690       -9.9841890587721471E-005
   47.999041485786435       -9.8653397410225840E-005
   48.188014090061188       -9.7483530674613995E-005
   48.376986694335940       -9.6331926471111658E-005
   48.565959298610686       -9.5198229402613922E-005
   48.754931902885438       -9.4082092352804222E-005
   48.943904507160184       -9.2983176261531521E-005
   49.132877111434937       -9.1901149907095024E-005
   49.321849715709689       -9.0835689695267552E-005
   49.510822319984435       -8.9786479454789100E-005
   49.699794924259187       -8.8753210239116029E-005
   49.888767528533933       -8.7735580134207559E-005
   50.077740132808685       -8.6733294072167114E-005
   50.266712737083438       -8.5746063650469730E-005
   50.455685341358183       -8.4773606956698005E-005
   50.644657945632936       -8.3815648398490644E-005
   50.833630549907681       -8.2871918538589387E-005
   51.022603154182434       -8.1942153934788645E-005
   51.211575758457187       -8.1026096984651084E-005
   51.400548362731932       -8.0123495774793118E-005
   51.589520967006685       -7.9234103934621957E-005
   51.778493571281430       -7.8357680494342105E-005
   51.967466175556183       -7.7493989747139767E-005
   52.156438779830935       -7.6642801115349692E-005
   52.345411384105681       -7.5803889020531216E-005
   52.534383988380434       -7.4977032757276083E-005
   52.723356592655179       -7.4162016370652025E-005
   52.912329196929932       -7.3358628537195948E-005
   53.101301801204684       -7.2566662449255915E-005
   53.290274405479430       -7.1785915702654631E-005
   53.479247009754182       -7.1016190187547012E-005
   53.668219614028928       -7.0257291982366997E-005
   53.857192218303680       -6.9509031250717591E-005
   54.046164822578433       -6.8771222141218122E-005
   54.235137426853179       -6.8043682690112570E-005
   54.424110031127931       -6.7326234726593426E-005
   54.613082635402677       -6.6618703780782029E-005
   54.802055239677429       -6.5920918994228419E-005
   54.991027843952182       -6.5232713032894408E-005
   55.180000448226927       -6.4553922002515246E-005
   55.368973052501680       -6.3884385366302929E-005
   55.557945656776425       -6.3223945864859595E-005
   55.746918261051178       -6.2572449438305145E-005
   55.935890865325931       -6.1929745150505477E-005
   56.124863469600676       -6.1295685115328051E-005
   56.313836073875429       -6.0670124424897997E-005
   56.502808678150174       -6.0052921079794955E-005
   56.691781282424927       -5.9443935921086250E-005
   56.880753886699679       -5.8843032564178044E-005
   57.069726490974425       -5.8250077334457068E-005
   57.258699095249177       -5.7664939204577238E-005
   57.447671699523923       -5.7087489733450330E-005
   57.636644303798676       -5.6517603006817698E-005
   57.825616908073428       -5.5955155579398474E-005
   58.014589512348174       -5.5400026418495848E-005
   58.203562116622926       -5.4852096849161506E-005
   58.392534720897672       -5.4311250500695215E-005
   58.581507325172424       -5.3777373254574984E-005
   58.770479929447177       -5.3250353193726809E-005
   58.959452533721922       -5.2730080553065722E-005
   59.148425137996675       -5.2216447671371696E-005
   59.337397742271420       -5.1709348944295688E-005
   59.526370346546173       -5.1208680778668649E-005
   59.715342950820926       -5.0714341547872242E-005
   59.904315555095671       -5.0226231548416945E-005
   60.093288159370424       -4.9744252957559084E-005
   60.282260763645169       -4.9268309792011247E-005
   60.471233367919922       -4.8798307867673449E-005
   60.660205972194674       -4.8334154760389381E-005
   60.849178576469427       -4.7875759767645897E-005
   61.038151180744165       -4.7423033871256565E-005
   61.227123785018918       -4.6975889700952082E-005
   61.416096389293671       -4.6534241498854435E-005
   61.605068993568423       -4.6098005084862488E-005
   61.794041597843176       -4.5667097822839396E-005
   61.983014202117914       -4.5241438587668024E-005
   62.171986806392667       -4.4820947733075925E-005
   62.360959410667419       -4.4405547060262703E-005
   62.549932014942172       -4.3995159787275969E-005
   62.738904619216925       -4.3589710519128178E-005
   62.927877223491663       -4.3189125218634238E-005
   63.116849827766416       -4.2793331177946701E-005
   63.305822432041168       -4.2402256990772662E-005
   63.494795036315921       -4.2015832525251649E-005
   63.683767640590673       -4.1633988897478796E-005
   63.872740244865412       -4.1256658445656308E-005
   64.061712849140164       -4.0883774704852692E-005
   64.250685453414917       -4.0515272382360300E-005
   64.439658057689670       -4.0151087333627874E-005
   64.628630661964422       -3.9791156538760272E-005
   64.817603266239161       -3.9435418079563276E-005
   65.006575870513913       -3.9083811117124541E-005
   65.195548474788666       -3.8736275869914962E-005
   65.384521079063418       -3.8392753592397592E-005
   65.573493683338171       -3.8053186554127245E-005
   65.762466287612909       -3.7717518019332723E-005
   65.951438891887662       -3.7385692226969548E-005
   66.140411496162415       -3.7057654371224824E-005
   66.329384100437167       -3.6733350582468542E-005
   66.518356704711920       -3.6412727908640986E-005
   66.707329308986658       -3.6095734297056034E-005
   66.896301913261411       -3.5782318576621962E-005
   67.085274517536163       -3.5472430440460776E-005
   67.274247121810916       -3.5166020428915865E-005
   67.463219726085669       -3.4863039912945495E-005
   67.652192330360407       -3.4563441077884050E-005
   67.841164934635160       -3.4267176907567292E-005
   68.030137538909912       -3.3974201168808035E-005
   68.219110143184665       -3.3684468396219419E-005
   68.408082747459417       -3.3397933877370392E-005
   68.597055351734156       -3.3114553638271501E-005
   68.786027956008908       -3.2834284429177799E-005
   68.975000560283661       -3.2557083710703883E-005
   69.163973164558413       -3.2282909640240973E-005
   69.352945768833166       -3.2011721058673418E-005
   69.541918373107904       -3.1743477477380812E-005
   69.730890977382657       -3.1478139065523534E-005
   69.919863581657410       -3.1215666637604424E-005
   70.108836185932162       -3.0956021641294245E-005
   70.297808790206915       -3.0699166145525525E-005
   70.486781394481653       -3.0445062828836556E-005
   70.675753998756406       -3.0193674967966868E-005
   70.864726603031158       -2.9944966426696488E-005
   71.053699207305911       -2.9698901644921227E-005
   71.242671811580664       -2.9455445627961227E-005
   71.431644415855402       -2.9214563936094611E-005
   71.620617020130155       -2.8976222674314383E-005
   71.809589624404907       -2.8740388482296292E-005
   71.998562228679660       -2.8507028524583571E-005
   72.187534832954412       -2.8276110480972158E-005
   72.376507437229151       -2.8047602537098680E-005
   72.565480041503903       -2.7821473375225713E-005
   72.754452645778656       -2.7597692165217056E-005
   72.943425250053409       -2.7376228555697988E-005
   73.132397854328161       -2.7157052665404133E-005
   73.321370458602900       -2.6940135074703070E-005
   73.510343062877652       -2.6725446817292190E-005
   73.699315667152405       -2.6512959372067950E-005
   73.888288271427157       -2.6302644655160020E-005
   74.077260875701910       -2.6094475012129465E-005
   74.266233479976648       -2.5888423210322310E-005
   74.455206084251401       -2.5684462431383936E-005
   74.644178688526154       -2.5482566263919741E-005
   74.833151292800906       -2.5282708696306602E-005
   75.022123897075659       -2.5084864109650593E-005
   75.211096501350397       -2.4889007270880975E-005
   75.400069105625150       -2.4695113325989482E-005
   75.589041709899902       -2.4503157793399504E-005
   75.778014314174655       -2.4313116557470102E-005
   75.966986918449408       -2.4124965862129000E-005
   76.155959522724146       -2.3938682304629944E-005
   76.344932126998899       -2.3754242829436734E-005
   76.533904731273651       -2.3571624722226629E-005
   76.722877335548404       -2.3390805604010857E-005
   76.911849939823156       -2.3211763425372217E-005
   77.100822544097895       -2.3034476460813847E-005
   77.289795148372647       -2.2858923303221930E-005
   77.478767752647400       -2.2685082858432698E-005
   77.667740356922153       -2.2512934339905633E-005
   77.856712961196905       -2.2342457263502816E-005
   78.045685565471643       -2.2173631442367150E-005
   78.234658169746396       -2.2006436981899907E-005
   78.423630774021149       -2.1840854274833521E-005
   78.612603378295901       -2.1676863996403682E-005
   78.801575982570654       -2.1514447099608466E-005
   78.990548586845392       -2.1353584810561350E-005
   79.179521191120145       -2.1194258623933027E-005
   79.368493795394897       -2.1036450298478480E-005
   79.557466399669650       -2.0880141852650567E-005
   79.746439003944403       -2.0725315560295222E-005
   79.935411608219141       -2.0571953946427724E-005
   80.124384212493894       -2.0420039783092796E-005
   80.313356816768646       -2.0269556085295828E-005
   80.502329421043399       -2.0120486107016968E-005
   80.691302025318151       -1.9972813337295416E-005
   80.880274629592890       -1.9826521496388437E-005
   81.069247233867642       -1.9681594532002361E-005
   81.258219838142395       -1.9538016615593743E-005
   81.447192442417148       -1.9395772138737517E-005
   81.636165046691900       -1.9254845709564843E-005
   81.825137650966639       -1.9115222149263858E-005
   82.014110255241391       -1.8976886488647361E-005
   82.203082859516144       -1.8839823964783437E-005
   82.392055463790896       -1.8704020017685252E-005
   82.581028068065649       -1.8569460287064683E-005
   82.770000672340387       -1.8436130609143327E-005
   82.958973276615140       -1.8304017013521840E-005
   83.147945880889893       -1.8173105720106254E-005
   83.336918485164645       -1.8043383136091206E-005
   83.525891089439398       -1.7914835852995133E-005
   83.714863693714136       -1.7787450643751069E-005
   83.903836297988889       -1.7661214459850722E-005
   84.092808902263641       -1.7536114428534569E-005
   84.281781506538394       -1.7412137850041680E-005
   84.470754110813147       -1.7289272194897315E-005
   84.659726715087885       -1.7167505101259311E-005
   84.848699319362638       -1.7046824372305034E-005
   85.037671923637390       -1.6927217973667066E-005
   85.226644527912143       -1.6808674030914473E-005
   85.415617132186895       -1.6691180827079157E-005
   85.604589736461634       -1.6574726800223240E-005
   85.793562340736386       -1.6459300541052903E-005
   85.982534945011139       -1.6344890790570964E-005
   86.171507549285892       -1.6231486437772293E-005
   86.360480153560644       -1.6119076517381125E-005
   86.549452757835382       -1.6007650207622100E-005
   86.738425362110135       -1.5897196828037789E-005
   86.927397966384888       -1.5787705837337640E-005
   87.116370570659640       -1.5679166831289760E-005
   87.305343174934393       -1.5571569540642780E-005
   87.494315779209131       -1.5464903829090072E-005
   87.683288383483884       -1.5359159691265433E-005
   87.872260987758636       -1.5254327250771994E-005
   88.061233592033389       -1.5150396758250354E-005
   88.250206196308142       -1.5047358589472652E-005
   88.439178800582880       -1.4945203243476294E-005
   88.628151404857633       -1.4843921340723204E-005
   88.817124009132385       -1.4743503621294586E-005
   89.006096613407138       -1.4643940943114427E-005
   89.195069217681890       -1.4545224280203947E-005
   89.384041821956629       -1.4447344720965249E-005
   89.573014426231381       -1.4350293466493632E-005
   89.761987030506134       -1.4254061828918641E-005
   89.950959634780887       -1.4158641229771986E-005
   90.139932239055639       -1.4064023198385983E-005
   90.328904843330378       -1.3970199370313431E-005
   90.517877447605130       -1.3877161485779357E-005
   90.706850051879883       -1.3784901388155103E-005
   90.895822656154635       -1.3693411022458386E-005
   91.084795260429388       -1.3602682433879309E-005
   91.273767864704126       -1.3512707766330100E-005
   91.462740468978879       -1.3423479261017592E-005
   91.651713073253632       -1.3334989255041714E-005
   91.840685677528384       -1.3247230180014901E-005
   92.029658281803137       -1.3160194560706141E-005
   92.218630886077875       -1.3073875013703694E-005
   92.407603490352628       -1.2988264246104680E-005
   92.596576094627380       -1.2903355054221080E-005
   92.785548698902133       -1.2819140322310812E-005
   92.974521303176886       -1.2735613021327450E-005
   93.163493907451624       -1.2652766207689123E-005
Plot  = 1.0 10.0 0.1
Step = 0.0000001
Grid  = 500
Range = 0.4 3000.0
Vibrations = 100
Rotations  = 0 1
Orbital    = 0

-- ----------------------------------

--- Start Module: vibrot at Thu Oct 27 14:48:55 2022 ---

()()()()()()()()()()()()()()()()()()()()()()()()()()()()()()()()()()()()()()()()()()()()()()()()()()

                                              &VIBROT

                                   only a single process is used
                       available to each process: 2.0 GB of memory, 1 thread?
                                             pid: 82969
()()()()()()()()()()()()()()()()()()()()()()()()()()()()()()()()()()()()()()()()()()()()()()()()()()


 Vibration-Rotation spectrum for the LiLi molecule.
 Vib-Rot spectrum for Li2(X) state-2                                             

 Rotational quantum number range   0  1
 Electronic angular momentum       0
 Vibrational quantum number range  0 99
 Mass of atom   7 Li   12789.391884 au
 Mass of atom   7 Li   12789.391884 au
 Reduced mass           6394.695942 au

 Statistics for numerical integration
 Number of steps           499
 Step length               0.017917
 Radial integration range  0.400000********** au
 logarithmic range        -0.916291  8.006368

 Spectroscopic constants will be computed
 Matrix elements of operators will not be computed

 Potential read from input
       R(au)     E(au)
     1.133836  190.469627
     1.322808   33.441810
     1.511781    8.821778
     1.700753    3.127376
     1.889726    1.377463
     2.078699    0.712054
     2.267671    0.413860
     2.456644    0.261481
     2.645616    0.174633
     2.834589    0.120287
     3.023562    0.083460
     3.212534    0.056836
     3.401507    0.036639
     3.590479    0.020829
     3.779452    0.008245
     3.968425   -0.001821
     4.157397   -0.009844
     4.346370   -0.016179
     4.535343   -0.021109
     4.724315   -0.024872
     4.913288   -0.027670
     5.102260   -0.029674
     5.291233   -0.031030
     5.480206   -0.031856
     5.669178   -0.032253
     5.858151   -0.032303
     6.047123   -0.032074
     6.236096   -0.031623
     6.425069   -0.030996
     6.614041   -0.030233
     6.803014   -0.029366
     6.991986   -0.028422
     7.180959   -0.027423
     7.369932   -0.026388
     7.558904   -0.025332
     7.747877   -0.024268
     7.936849   -0.023206
     8.125822   -0.022154
     8.314795   -0.021120
     8.503767   -0.020108
     8.692740   -0.019124
     8.881712   -0.018171
     9.070685   -0.017251
     9.259658   -0.016366
     9.448630   -0.015518
     9.637603   -0.014707
     9.826575   -0.013933
    10.015548   -0.013197
    10.204521   -0.012498
    10.393493   -0.011835
    10.582466   -0.011208
    10.771438   -0.010615
    10.960411   -0.010056
    11.149384   -0.009529
    11.338356   -0.009032
    11.527329   -0.008564
    11.716301   -0.008124
    11.905274   -0.007710
    12.094247   -0.007322
    12.283219   -0.006957
    12.472192   -0.006613
    12.661164   -0.006291
    12.850137   -0.005988
    13.039110   -0.005703
    13.228082   -0.005436
    13.417055   -0.005184
    13.606028   -0.004948
    13.795000   -0.004725
    13.983973   -0.004515
    14.172945   -0.004318
    14.361918   -0.004132
    14.550891   -0.003956
    14.739863   -0.003791
    14.928836   -0.003634
    15.117808   -0.003487
    15.306781   -0.003347
    15.495754   -0.003215
    15.684726   -0.003089
    15.873699   -0.002971
    16.062671   -0.002858
    16.251644   -0.002752
    16.440617   -0.002650
    16.629589   -0.002554
    16.818562   -0.002463
    17.007534   -0.002375
    17.196507   -0.002293
    17.385480   -0.002214
    17.574452   -0.002138
    17.763425   -0.002067
    17.952397   -0.001998
    18.141370   -0.001933
    18.330343   -0.001870
    18.519315   -0.001810
    18.708288   -0.001753
    18.897260   -0.001698
    19.086233   -0.001646
    19.275206   -0.001596
    19.464178   -0.001548
    19.653151   -0.001501
    19.842123   -0.001457
    20.031096   -0.001415
    20.220069   -0.001374
    20.409041   -0.001334
    20.598014   -0.001297
    20.786986   -0.001260
    20.975959   -0.001225
    21.164932   -0.001192
    21.353904   -0.001159
    21.542877   -0.001128
    21.731849   -0.001098
    21.920822   -0.001069
    22.109795   -0.001041
    22.298767   -0.001014
    22.487740   -0.000988
    22.676713   -0.000963
    22.865685   -0.000939
    23.054658   -0.000915
    23.243630   -0.000892
    23.432603   -0.000871
    23.621576   -0.000849
    23.810548   -0.000829
    23.999521   -0.000809
    24.188493   -0.000790
    24.377466   -0.000771
    24.566439   -0.000753
    24.755411   -0.000736
    24.944384   -0.000719
    25.133356   -0.000702
    25.322329   -0.000686
    25.511302   -0.000671
    25.700274   -0.000656
    25.889247   -0.000642
    26.078219   -0.000628
    26.267192   -0.000614
    26.456165   -0.000601
    26.645137   -0.000588
    26.834110   -0.000575
    27.023082   -0.000563
    27.212055   -0.000551
    27.401028   -0.000540
    27.590000   -0.000529
    27.778973   -0.000518
    27.967945   -0.000507
    28.156918   -0.000497
    28.345891   -0.000487
    28.534863   -0.000477
    28.723836   -0.000468
    28.912808   -0.000458
    29.101781   -0.000449
    29.290754   -0.000441
    29.479726   -0.000432
    29.668699   -0.000424
    29.857671   -0.000416
    30.046644   -0.000408
    30.235617   -0.000400
    30.424589   -0.000393
    30.613562   -0.000385
    30.802534   -0.000378
    30.991507   -0.000371
    31.180480   -0.000365
    31.369452   -0.000358
    31.558425   -0.000351
    31.747398   -0.000345
    31.936370   -0.000339
    32.125343   -0.000333
    32.314315   -0.000327
    32.503288   -0.000321
    32.692261   -0.000316
    32.881233   -0.000310
    33.070206   -0.000305
    33.259178   -0.000300
    33.448151   -0.000295
    33.637124   -0.000290
    33.826096   -0.000285
    34.015069   -0.000280
    34.204041   -0.000275
    34.393014   -0.000271
    34.581987   -0.000266
    34.770959   -0.000262
    34.959932   -0.000258
    35.148904   -0.000254
    35.337877   -0.000249
    35.526850   -0.000245
    35.715822   -0.000242
    35.904795   -0.000238
    36.093767   -0.000234
    36.282740   -0.000230
    36.471713   -0.000227
    36.660685   -0.000223
    36.849658   -0.000220
    37.038630   -0.000216
    37.227603   -0.000213
    37.416576   -0.000210
    37.605548   -0.000207
    37.794521   -0.000204
    37.983493   -0.000200
    38.172466   -0.000198
    38.361439   -0.000195
    38.550411   -0.000192
    38.739384   -0.000189
    38.928356   -0.000186
    39.117329   -0.000183
    39.306302   -0.000181
    39.495274   -0.000178
    39.684247   -0.000176
    39.873220   -0.000173
    40.062192   -0.000171
    40.251165   -0.000168
    40.440137   -0.000166
    40.629110   -0.000164
    40.818083   -0.000161
    41.007055   -0.000159
    41.196028   -0.000157
    41.385000   -0.000155
    41.573973   -0.000153
    41.762946   -0.000150
    41.951918   -0.000148
    42.140891   -0.000146
    42.329863   -0.000144
    42.518836   -0.000142
    42.707809   -0.000141
    42.896781   -0.000139
    43.085754   -0.000137
    43.274726   -0.000135
    43.463699   -0.000133
    43.652672   -0.000132
    43.841644   -0.000130
    44.030617   -0.000128
    44.219589   -0.000127
    44.408562   -0.000125
    44.597535   -0.000123
    44.786507   -0.000122
    44.975480   -0.000120
    45.164452   -0.000119
    45.353425   -0.000117
    45.542398   -0.000116
    45.731370   -0.000114
    45.920343   -0.000113
    46.109315   -0.000111
    46.298288   -0.000110
    46.487261   -0.000109
    46.676233   -0.000107
    46.865206   -0.000106
    47.054178   -0.000105
    47.243151   -0.000104
    47.432124   -0.000102
    47.621096   -0.000101
    47.810069   -0.000100
    47.999041   -0.000099
    48.188014   -0.000097
    48.376987   -0.000096
    48.565959   -0.000095
    48.754932   -0.000094
    48.943905   -0.000093
    49.132877   -0.000092
    49.321850   -0.000091
    49.510822   -0.000090
    49.699795   -0.000089
    49.888768   -0.000088
    50.077740   -0.000087
    50.266713   -0.000086
    50.455685   -0.000085
    50.644658   -0.000084
    50.833631   -0.000083
    51.022603   -0.000082
    51.211576   -0.000081
    51.400548   -0.000080
    51.589521   -0.000079
    51.778494   -0.000078
    51.967466   -0.000077
    52.156439   -0.000077
    52.345411   -0.000076
    52.534384   -0.000075
    52.723357   -0.000074
    52.912329   -0.000073
    53.101302   -0.000073
    53.290274   -0.000072
    53.479247   -0.000071
    53.668220   -0.000070
    53.857192   -0.000070
    54.046165   -0.000069
    54.235137   -0.000068
    54.424110   -0.000067
    54.613083   -0.000067
    54.802055   -0.000066
    54.991028   -0.000065
    55.180000   -0.000065
    55.368973   -0.000064
    55.557946   -0.000063
    55.746918   -0.000063
    55.935891   -0.000062
    56.124863   -0.000061
    56.313836   -0.000061
    56.502809   -0.000060
    56.691781   -0.000059
    56.880754   -0.000059
    57.069726   -0.000058
    57.258699   -0.000058
    57.447672   -0.000057
    57.636644   -0.000057
    57.825617   -0.000056
    58.014590   -0.000055
    58.203562   -0.000055
    58.392535   -0.000054
    58.581507   -0.000054
    58.770480   -0.000053
    58.959453   -0.000053
    59.148425   -0.000052
    59.337398   -0.000052
    59.526370   -0.000051
    59.715343   -0.000051
    59.904316   -0.000050
    60.093288   -0.000050
    60.282261   -0.000049
    60.471233   -0.000049
    60.660206   -0.000048
    60.849179   -0.000048
    61.038151   -0.000047
    61.227124   -0.000047
    61.416096   -0.000047
    61.605069   -0.000046
    61.794042   -0.000046
    61.983014   -0.000045
    62.171987   -0.000045
    62.360959   -0.000044
    62.549932   -0.000044
    62.738905   -0.000044
    62.927877   -0.000043
    63.116850   -0.000043
    63.305822   -0.000042
    63.494795   -0.000042
    63.683768   -0.000042
    63.872740   -0.000041
    64.061713   -0.000041
    64.250685   -0.000041
    64.439658   -0.000040
    64.628631   -0.000040
    64.817603   -0.000039
    65.006576   -0.000039
    65.195548   -0.000039
    65.384521   -0.000038
    65.573494   -0.000038
    65.762466   -0.000038
    65.951439   -0.000037
    66.140411   -0.000037
    66.329384   -0.000037
    66.518357   -0.000036
    66.707329   -0.000036
    66.896302   -0.000036
    67.085275   -0.000035
    67.274247   -0.000035
    67.463220   -0.000035
    67.652192   -0.000035
    67.841165   -0.000034
    68.030138   -0.000034
    68.219110   -0.000034
    68.408083   -0.000033
    68.597055   -0.000033
    68.786028   -0.000033
    68.975001   -0.000033
    69.163973   -0.000032
    69.352946   -0.000032
    69.541918   -0.000032
    69.730891   -0.000031
    69.919864   -0.000031
    70.108836   -0.000031
    70.297809   -0.000031
    70.486781   -0.000030
    70.675754   -0.000030
    70.864727   -0.000030
    71.053699   -0.000030
    71.242672   -0.000029
    71.431644   -0.000029
    71.620617   -0.000029
    71.809590   -0.000029
    71.998562   -0.000029
    72.187535   -0.000028
    72.376507   -0.000028
    72.565480   -0.000028
    72.754453   -0.000028
    72.943425   -0.000027
    73.132398   -0.000027
    73.321370   -0.000027
    73.510343   -0.000027
    73.699316   -0.000027
    73.888288   -0.000026
    74.077261   -0.000026
    74.266233   -0.000026
    74.455206   -0.000026
    74.644179   -0.000025
    74.833151   -0.000025
    75.022124   -0.000025
    75.211097   -0.000025
    75.400069   -0.000025
    75.589042   -0.000025
    75.778014   -0.000024
    75.966987   -0.000024
    76.155960   -0.000024
    76.344932   -0.000024
    76.533905   -0.000024
    76.722877   -0.000023
    76.911850   -0.000023
    77.100823   -0.000023
    77.289795   -0.000023
    77.478768   -0.000023
    77.667740   -0.000023
    77.856713   -0.000022
    78.045686   -0.000022
    78.234658   -0.000022
    78.423631   -0.000022
    78.612603   -0.000022
    78.801576   -0.000022
    78.990549   -0.000021
    79.179521   -0.000021
    79.368494   -0.000021
    79.557466   -0.000021
    79.746439   -0.000021
    79.935412   -0.000021
    80.124384   -0.000020
    80.313357   -0.000020
    80.502329   -0.000020
    80.691302   -0.000020
    80.880275   -0.000020
    81.069247   -0.000020
    81.258220   -0.000020
    81.447192   -0.000019
    81.636165   -0.000019
    81.825138   -0.000019
    82.014110   -0.000019
    82.203083   -0.000019
    82.392055   -0.000019
    82.581028   -0.000019
    82.770001   -0.000018
    82.958973   -0.000018
    83.147946   -0.000018
    83.336918   -0.000018
    83.525891   -0.000018
    83.714864   -0.000018
    83.903836   -0.000018
    84.092809   -0.000018
    84.281782   -0.000017
    84.470754   -0.000017
    84.659727   -0.000017
    84.848699   -0.000017
    85.037672   -0.000017
    85.226645   -0.000017
    85.415617   -0.000017
    85.604590   -0.000017
    85.793562   -0.000016
    85.982535   -0.000016
    86.171508   -0.000016
    86.360480   -0.000016
    86.549453   -0.000016
    86.738425   -0.000016
    86.927398   -0.000016
    87.116371   -0.000016
    87.305343   -0.000016
    87.494316   -0.000015
    87.683288   -0.000015
    87.872261   -0.000015
    88.061234   -0.000015
    88.250206   -0.000015
    88.439179   -0.000015
    88.628151   -0.000015
    88.817124   -0.000015
    89.006097   -0.000015
    89.195069   -0.000015
    89.384042   -0.000014
    89.573014   -0.000014
    89.761987   -0.000014
    89.950960   -0.000014
    90.139932   -0.000014
    90.328905   -0.000014
    90.517877   -0.000014
    90.706850   -0.000014
    90.895823   -0.000014
    91.084795   -0.000014
    91.273768   -0.000014
    91.462740   -0.000013
    91.651713   -0.000013
    91.840686   -0.000013
    92.029658   -0.000013
    92.218631   -0.000013
    92.407603   -0.000013
    92.596576   -0.000013
    92.785549   -0.000013
    92.974521   -0.000013
    93.163494   -0.000013
 A plot file of the potential will be generated
 Generating plot file:VIBPLT0 

 Scaling parameter for potential:    1.000000

 extremum points
                        R(au)         Value
 Min point         5.792821     -0.032320
 Min point         1.471094      8.662828
 Max point         1.510477      8.822311
 Extrapolated value at infinity    -0.000010


 Eigenstates

  Vib. q.n.   Rot. q.n.    Energy
      0           0      0.000571
      1           0      0.001695
      2           0      0.002798
      3           0      0.003879
      4           0      0.004938
      5           0      0.005974
      6           0      0.006989
      7           0      0.007981
      8           0      0.008951
      9           0      0.009898
     10           0      0.010823
     11           0      0.011726
     12           0      0.012605
     13           0      0.013462
     14           0      0.014297
     15           0      0.015109
     16           0      0.015898
     17           0      0.016665
     18           0      0.017409
     19           0      0.018130
     20           0      0.018829
     21           0      0.019505
     22           0      0.020160
     23           0      0.020792
     24           0      0.021401
     25           0      0.021989
     26           0      0.022556
     27           0      0.023100
     28           0      0.023624
     29           0      0.024126
     30           0      0.024608
     31           0      0.025069
     32           0      0.025509
     33           0      0.025931
     34           0      0.026332
     35           0      0.026715
     36           0      0.027079
     37           0      0.027425
     38           0      0.027754
     39           0      0.028065
     40           0      0.028359
     41           0      0.028638
     42           0      0.028901
     43           0      0.029149
     44           0      0.029382
     45           0      0.029602
     46           0      0.029808
     47           0      0.030002
     48           0      0.030184
     49           0      0.030354
     50           0      0.030512
     51           0      0.030661
     52           0      0.030799
     53           0      0.030928
     54           0      0.031048
     55           0      0.031159
     56           0      0.031263
     57           0      0.031359
     58           0      0.031448
     59           0      0.031531
     60           0      0.031607
     61           0      0.031677
     62           0      0.031741
     63           0      0.031800
     64           0      0.031853
     65           0      0.031902
     66           0      0.031946
     67           0      0.031986
     68           0      0.032023
     69           0      0.032056
     70           0      0.032087
     71           0      0.032115
     72           0      0.032141
     73           0      0.032164
     74           0      0.032184
     75           0      0.032203
     76           0      0.032219
     77           0      0.032233
     78           0      0.032246
     79           0      0.032257
     80           0      0.032267
     81           0      0.032276
     82           0      0.032283
     83           0      0.032290
     84           0      0.032295
     85           0      0.032300
     86           0      0.032304
     87           0      0.032307
     88           0      0.032310
 ###############################################################################
 ###############################################################################
 ###                                                                         ###
 ###                                                                         ###
 ###    Location: VibRot                                                     ###
 ###                                                                         ###
 ###                                                                         ###
 ###    Failed to find a state.Try decreasing STEP.                          ###
 ###                                                                         ###
 ###                                                                         ###
 ###############################################################################
 ###############################################################################
--- Stop Module: vibrot at Thu Oct 27 14:48:57 2022 /rc=_RC_NOT_CONVERGED_ ---
*** files: li2.VibPlt0 li2.VibWvs xmldump
    saved to directory /Users/arpitarunkumaar/Desktop/untitled folder
--- Module vibrot spent 1 second ---

.#######################.
.# Convergence problem #.
.#######################.

    Timing: Wall=1.62 User=1.58 System=0.02
