   This run of MOLCAS is using the pymolcas driver

                             OPE
                             OPE          NMOL  CASOP  ENMOLC A   SO
                 OPE        NMOLC        AS  OP EN  MO LC     AS  OP
                OPENM       OL CA        SO  PE NM  OL CA     SOP EN
                OP EN      MO   LC       AS  OP ENMOL  CASO   PENMOL
                OP  EN     MO   LC       AS  OP EN     MO     LC ASO
               OP   E  NMOL  C  AS       OP  EN MO     LC     AS  OP
               OP  E   NMO   LC AS        OPEN  MO     LCASOP EN   M
               O  PEN   MO  LCA  SO
            OPE   NMO   L   CAS    OP
        OPENMOL  CASOP     ENMOL   CASOPE
     OPENMOLCA   SOPENMOLCASOPEN   MOLCASOPE
    OPENMOLCAS   OP           EN   MOL    CAS
    OPENMOLCAS       OP  ENM        O     LCA
    OPENMOLCAS    OPEN  MOLCASO     P  E  NMO
    OPENMOLCAS     OP               E  N  MOL
    OPENMOLCA   SO           PENM   O  L  CAS    OPEN    MO    LCAS
    OPENMOLCA   SOP           ENM   O  L  CAS   OP  EN  MOLC  AS   O
    OPENMOLCA   SOPE           NM      O  LCA   S      OP  EN MO
    OPENMOLC                AS         O  PEN   M      OL  CA  SOPE
    OPENMO        LCASOPE  NMOL        C  ASO   P      ENMOLC     AS
    OPE     NMO      LCA  SO     P     E   NM   OL  CA SO  PE N   MO
          OPENMOLCA            SOPE   NMO        LCAS  O    P  ENMO
     OPENMOLCASOPENMOLCASOPENMOLCASOPENMOLCA
        OPENMOLCASOPENMOLCASOPENMOLCASOPE
            OPENMOLCASOPENMOLCASOPENM
               OPENMOLCASOPENMOLCA        version: 22.06
                   OPENMOLCASO
                       OPE                tag: 110-gf028b1278

 OpenMolcas is free software; you can redistribute it and/or modify it
 under the terms of the GNU Lesser General Public License version 2.1.
 OpenMolcas is distributed in the hope that it will be useful, but it
 is provided "as is" and without any express or implied warranties.
 For more details see the full text of the license in the file
 LICENSE or in <http://www.gnu.org/licenses/>.

                 Copyright (C) The OpenMolcas Authors
           For the author list and the recommended citation,
                   consult the file CONTRIBUTORS.md

           *************************************************
           * pymolcas version py2.23                       *
           *   build d53e6f8e18683222a6e02cb84ce98eb3      *
           *   (after the EMIL interpreter by V. Veryazov) *
           *************************************************

configuration info
------------------
Host name: Arpits-MacBook-Air.local (macOS)
C Compiler ID: AppleClang
C flags: -std=gnu99
Fortran Compiler ID: GNU
Fortran flags: -fno-aggressive-loop-optimizations -cpp -fdefault-integer-8 -fmax-stack-var-size=1048576
Definitions: _MOLCAS_;_I8_;_LINUX_;_DARWIN_;_DARWIN_C_SOURCE
Parallel: OFF (GA=OFF)


   ------------------------------------------------------------------------
  |
  |           Project: li2
  |    Submitted from: /Users/arpitarunkumaar/Desktop/untitled folder
  |      Scratch area: /var/folders/c3/rhj39hv90vx5ff1jpz11zd8m0000gn/T/li2
  |   Save outputs to: /Users/arpitarunkumaar/Desktop/untitled folder
  |            Molcas: /Users/arpitarunkumaar/build
  |
  | Scratch area is NOT empty
  |
  |    MOLCAS_DRIVER = /Users/arpitarunkumaar/build/pymolcas
  |    MOLCAS_NPROCS = 1
  |    MOLCAS_SOURCE = /Users/arpitarunkumaar/OpenMolcas
  | MOLCAS_STRUCTURE = 0
  |
   ------------------------------------------------------------------------

++ ---------   Input file   ---------

&VIBROT
RoVibrational spectrum
Title = Vib-Rot spectrum for Li2(X)
Atoms = 0 Li  0 Li
Potential
   0.0000000000000000        1.3608903440808089
   4.7243151068687442E-002   655.12245033928718
   9.4486302137374883E-002   164.86331651290720
  0.14172945320606231        73.712187706505645
  0.18897260427474977        41.686644311770969
  0.23621575534343719        26.807118922889618
  0.28345890641212462        18.693883307511793
  0.33070205748081205        13.783411902306757
  0.37794520854949953        10.584309522368155
  0.42518835961818696        8.3827365155299898
  0.47243151068687439        6.8020101216972684
  0.51967466175556187        5.6280203955501955
  0.56691781282424925        4.7317148466955947
  0.61416096389293673        4.0315246119158514
  0.66140411496162410        3.4738275448859190
  0.70864726603031158        3.0221886967138869
  0.75589041709899907        2.6511432514146120
  0.80313356816768644        2.3424547630891337
  0.85037671923637392        2.0827828546365481
  0.89761987030506130        1.8621844874027724
  0.94486302137374878        1.6731247812257399
  0.99210617244243626        1.5098085089308915
   1.0393493235111237        1.3677186754993982
   1.0865924745798110        1.2432919466729655
   1.1338356256484985        1.1336864065314103
   1.1810787767171860        1.0366127851071267
   1.2283219277858735       0.95021006636944783
   1.2755650788545609       0.87295261420638537
   1.3228082299232482       0.80358000268625995
   1.3700513809919357       0.74104341708248422
   1.4172945320606232       0.68446429612406146
   1.4645376831293107       0.63310211887291967
   1.5117808341979981       0.58632909429529889
   1.5590239852666854       0.54361011187657582
   1.6062671363353729       0.50448673842497327
   1.6535102874040604       0.46856435313295014
   1.7007534384727478       0.43550173605212267
   1.7479965895414353       0.40500258891215890
   1.7952397406101226       0.37680858857916277
   1.8424828916788101       0.35069366418432685
   1.8897260427474976       0.32645925735452597
   1.9369691938161848       0.30393037694766922
   1.9842123448848725       0.28295229947782191
   2.0314554959535598       0.26338779708163096
   2.0786986470222475       0.24511479867584643
   2.1259417980909348       0.22802440854115352
   2.1731849491596220       0.21201922116986999
   2.2204281002283097       0.19701188275382178
   2.2676712512969970       0.18292385885698698
   2.3149144023656847       0.16968437514011492
   2.3621575534343719       0.15722950388245244
   2.4094007045030592       0.14550137378661374
   2.4566438555717469       0.13444748439393994
   2.5038870066404342       0.12402010956362625
   2.5511301577091219       0.11417577702365583
   2.5983733087778091       0.10487481309788943
   2.6456164598464964        9.6080943440196312E-002
   2.6928596109151841        8.7760942034367656E-002
   2.7401027619838714        7.9884321903054917E-002
   2.7873459130525591        7.2423061955426027E-002
   2.8345890641212463        6.5351365227296968E-002
   2.8818322151899336        5.8645444458084880E-002
   2.9290753662586213        5.2283331529671344E-002
   2.9763185173273086        4.6244707781778242E-002
   3.0235616683959963        4.0510752632614312E-002
   3.0708048194646835        3.5064008284680627E-002
   3.1180479705333708        2.9888258594118942E-002
   3.1652911216020585        2.4968420436733280E-002
   3.2125342726707458        2.0290446121271226E-002
   3.2597774237394335        1.5841235587065017E-002
   3.3070205748081207        1.1608557283253104E-002
   3.3542637258768080        7.5809767646628674E-003
   3.4015068769454957        3.7477921583758578E-003
   3.4487500280141830        9.8975757854240484E-005
   3.4959931790828707       -3.3748789093772285E-003
   3.5432363301515579       -6.6826051171125734E-003
   3.5904794812202452       -9.8325065882017317E-003
   3.6377226322889329       -1.2832397205246197E-002
   3.6849657833576202       -1.5689637183593161E-002
   3.7322089344263079       -1.8411166061124924E-002
   3.7794520854949951       -2.1003532820016661E-002
   3.8266952365636824       -2.3472923421123202E-002
   3.8739383876323696       -2.5825186001292567E-002
   3.9211815387010578       -2.8065853957135515E-002
   3.9684246897697451       -3.0200167115207645E-002
   4.0156678408384323       -3.2233091167655312E-002
   4.0629109919071196       -3.4169335533942108E-002
   4.1101541429758068       -3.6013369792872008E-002
   4.1573972940444950       -3.7769438814610930E-002
   4.2046404451131822       -3.9441576709442976E-002
   4.2518835961818695       -4.1033619698573963E-002
   4.2991267472505568       -4.2549218001895484E-002
   4.3463698983192440       -4.3991846828606761E-002
   4.3936130493879322       -4.5364816548303766E-002
   4.4408562004566194       -4.6671282112852132E-002
   4.4880993515253067       -4.7914251792768384E-002
   4.5353425025939940       -4.9096595285987511E-002
   4.5825856536626812       -5.0221051251485259E-002
   4.6298288047313694       -5.1290234315603873E-002
   4.6770719558000566       -5.2306641594500609E-002
   4.7243151068687439       -5.3272658772330755E-002
   4.7715582579374312       -5.4190565771296891E-002
   4.8188014090061184       -5.5062542046456643E-002
   4.8660445600748066       -5.5890671535406306E-002
   4.9132877111434938       -5.6676947290310344E-002
   4.9605308622121811       -5.7423275817377863E-002
   5.0077740132808684       -5.8131481146831698E-002
   5.0550171643495556       -5.8803308654370612E-002
   5.1022603154182438       -5.9440428653429418E-002
   5.1495034664869310       -6.0044439775865807E-002
   5.1967466175556183       -6.0616872157339838E-002
   5.2439897686243055       -6.1159190442125824E-002
   5.2912329196929928       -6.1672796621084970E-002
   5.3384760707616810       -6.2159032715214592E-002
   5.3857192218303682       -6.2619183316260679E-002
   5.4329623728990555       -6.3054477994950564E-002
   5.4802055239677427       -6.3466093586418790E-002
   5.5274486750364300       -6.3855156361751875E-002
   5.5746918261051182       -6.4222744093734990E-002
   5.6219349771738054       -6.4569888024250177E-002
   5.6691781282424927       -6.4897574740196987E-002
   5.7164212793111799       -6.5206747964109371E-002
   5.7636644303798672       -6.5498310265333010E-002
   5.8109075814485553       -6.5773124696852148E-002
   5.8581507325172426       -6.6032016362746498E-002
   5.9053938835859299       -6.6275773920524181E-002
   5.9526370346546171       -6.6505151022450082E-002
   5.9998801857233044       -6.6720867699518918E-002
   6.0471233367919925       -6.6923611691403997E-002
   6.0943664878606798       -6.7114039725497884E-002
   6.1416096389293671       -6.7292778747779086E-002
   6.1888527899980543       -6.7460427108119753E-002
   6.2360959410667416       -6.7617555702322113E-002
   6.2833390921354297       -6.7764709073024607E-002
   6.3305822432041170       -6.7902406471405524E-002
   6.3778253942728043       -6.8031142881483569E-002
   6.4250685453414915       -6.8151390008546420E-002
   6.4723116964101788       -6.8263597233324813E-002
   6.5195548474788669       -6.8368192533092065E-002
   6.5667979985475542       -6.8465583371088157E-002
   6.6140411496162415       -6.8556157555293137E-002
   6.6612843006849287       -6.8640284067639126E-002
   6.7085274517536160       -6.8718313864654129E-002
   6.7557706028223041       -6.8790580650371344E-002
   6.8030137538909914       -6.8857401622401795E-002
   6.8502569049596786       -6.8919078191930855E-002
   6.8975000560283659       -6.8975896678340726E-002
   6.9447432070970532       -6.9028128979210443E-002
   6.9919863581657413       -6.9076033216294755E-002
   7.0392295092344286       -6.9119854358142843E-002
   7.0864726603031158       -6.9159824819958055E-002
   7.1337158113718031       -6.9196165041254643E-002
   7.1809589624404904       -6.9229084041899189E-002
   7.2282021135091785       -6.9258779957074537E-002
   7.2754452645778658       -6.9285440551694569E-002
   7.3226884156465530       -6.9309243714821223E-002
   7.3699315667152403       -6.9330357934557649E-002
   7.4171747177839276       -6.9348942753982470E-002
   7.4644178688526157       -6.9365149208571619E-002
   7.5116610199213030       -6.9379120245645423E-002
   7.5589041709899902       -6.9390991126374049E-002
   7.6061473220586784       -6.9400889810728617E-002
   7.6533904731273648       -6.9408937325983938E-002
   7.7006336241960529       -6.9415248119191975E-002
   7.7478767752647393       -6.9419930394141155E-002
   7.7951199263334274       -6.9423086433288678E-002
   7.8423630774021156       -6.9424812905099068E-002
   7.8896062284708020       -6.9425201157340022E-002
   7.9368493795394901       -6.9424337496768435E-002
   7.9840925306081765       -6.9422303455630510E-002
   8.0313356816768646       -6.9419176045545247E-002
   8.0785788327455528       -6.9415027999131518E-002
   8.1258219838142391       -6.9409927999888779E-002
   8.1730651348829273       -6.9403940900728073E-002
   8.2203082859516137       -6.9397127931667982E-002
   8.2675514370203018       -6.9389546897019164E-002
   8.3147945880889900       -6.9381252362608684E-002
   8.3620377391576763       -6.9372295833313100E-002
   8.4092808902263645       -6.9362725921451485E-002
   8.4565240412950509       -6.9352588506330040E-002
   8.5037671923637390       -6.9341926885362115E-002
   8.5510103434324272       -6.9330781917141593E-002
   8.5982534945011135       -6.9319192156843609E-002
   8.6454966455698017       -6.9307193984271181E-002
   8.6927397966384881       -6.9294821724948941E-002
   8.7399829477071762       -6.9282107764541800E-002
   8.7872260987758644       -6.9269082656954029E-002
   8.8344692498445507       -6.9255775226427660E-002
   8.8817124009132389       -6.9242212663922525E-002
   8.9289555519819253       -6.9228420618038036E-002
   8.9761987030506134       -6.9214423280863580E-002
   9.0234418541193016       -6.9200243468880873E-002
   9.0706850051879879       -6.9185902699291618E-002
   9.1179281562566761       -6.9171421261957536E-002
   9.1651713073253624       -6.9156818287221380E-002
   9.2124144583940506       -6.9142111809786772E-002
   9.2596576094627387       -6.9127318828962031E-002
   9.3069007605314251       -6.9112455365350198E-002
   9.3541439116001133       -6.9097536514303795E-002
   9.4013870626687996       -6.9082576496258832E-002
   9.4486302137374878       -6.9067588704134222E-002
   9.4958733648061759       -6.9052585747993070E-002
   9.5431165158748623       -6.9037579497115850E-002
   9.5903596669435505       -6.9022581119599455E-002
   9.6376028180122368       -6.9007601119710146E-002
   9.6848459690809250       -6.8992649373021894E-002
   9.7320891201496131       -6.8977735159572909E-002
   9.7793322712182995       -6.8962867195099281E-002
   9.8265754222869877       -6.8948053660446110E-002
   9.8738185733556740       -6.8933302229361226E-002
   9.9210617244243622       -6.8918620094639352E-002
   9.9683048754930503       -6.8904013992835689E-002
   10.015548026561737       -6.8889490227562494E-002
   10.062791177630425       -6.8875054691482487E-002
   10.110034328699111       -6.8860712887099398E-002
   10.157277479767799       -6.8846469946359332E-002
   10.204520630836488       -6.8832330649226947E-002
   10.251763781905174       -6.8818299441200007E-002
   10.299006932973862       -6.8804380449903529E-002
   10.346250084042548       -6.8790577500809219E-002
   10.393493235111237       -6.8776894132075342E-002
   10.440736386179925       -6.8763333608657773E-002
   10.487979537248611       -6.8749898935650922E-002
   10.535222688317299       -6.8736592870936142E-002
   10.582465839385986       -6.8723417937233161E-002
   10.629708990454674       -6.8710376433463713E-002
   10.676952141523362       -6.8697470445636469E-002
   10.724195292592048       -6.8684701857108024E-002
   10.771438443660736       -6.8672072358406319E-002
   10.818681594729423       -6.8659583456552875E-002
   10.865924745798111       -6.8647236483929425E-002
   10.913167896866799       -6.8635032606739102E-002
   10.960411047935485       -6.8622972833089269E-002
   11.007654199004174       -6.8611058020655341E-002
   11.054897350072860       -6.8599288884021059E-002
   11.102140501141548       -6.8587666001713371E-002
   11.149383652210236       -6.8576189822859374E-002
   11.196626803278923       -6.8564860673606107E-002
   11.243869954347611       -6.8553678763221451E-002
   11.291113105416297       -6.8542644189962809E-002
   11.338356256484985       -6.8531756946658487E-002
   11.385599407553674       -6.8521016926079703E-002
   11.432842558622360       -6.8510423926066433E-002
   11.480085709691048       -6.8499977654457339E-002
   11.527328860759734       -6.8489677733787377E-002
   11.574572011828423       -6.8479523705830506E-002
   11.621815162897111       -6.8469515035923550E-002
   11.669058313965797       -6.8459651117121684E-002
   11.716301465034485       -6.8449931274194215E-002
   11.763544616103172       -6.8440354767452069E-002
   11.810787767171860       -6.8430920796420047E-002
   11.858030918240548       -6.8421628503386261E-002
   11.905274069309234       -6.8412476976760186E-002
   11.952517220377922       -6.8403465254344084E-002
   11.999760371446609       -6.8394592326463180E-002
   12.047003522515297       -6.8385857138945558E-002
   12.094246673583985       -6.8377258596033594E-002
   12.141489824652671       -6.8368795563122392E-002
   12.188732975721360       -6.8360466869438835E-002
   12.235976126790046       -6.8352271310579527E-002
   12.283219277858734       -6.8344207650975708E-002
   12.330462428927422       -6.8336274626239826E-002
   12.377705579996109       -6.8328470945416303E-002
   12.424948731064797       -6.8320795293159528E-002
   12.472191882133483       -6.8313246331816069E-002
   12.519435033202171       -6.8305822703415800E-002
   12.566678184270859       -6.8298523031576422E-002
   12.613921335339546       -6.8291345923362501E-002
   12.661164486408234       -6.8284289971016807E-002
   12.708407637476920       -6.8277353753678119E-002
   12.755650788545609       -6.8270535838962254E-002
   12.802893939614297       -6.8263834784529395E-002
   12.850137090682983       -6.8257249139564977E-002
   12.897380241751671       -6.8250777446182992E-002
   12.944623392820358       -6.8244418240788349E-002
   12.991866543889046       -6.8238170055366296E-002
   13.039109694957734       -6.8232031418726330E-002
   13.086352846026420       -6.8226000857664046E-002
   13.133595997095108       -6.8220076898113893E-002
   13.180839148163795       -6.8214258066187999E-002
   13.228082299232483       -6.8208542889233295E-002
   13.275325450301171       -6.8202929896770043E-002
   13.322568601369857       -6.8197417621453302E-002
   13.369811752438546       -6.8192004599920322E-002
   13.417054903507232       -6.8186689373638129E-002
   13.464298054575920       -6.8181470489705326E-002
   13.511541205644608       -6.8176346501581178E-002
   13.558784356713295       -6.8171315969814600E-002
   13.606027507781983       -6.8166377462713978E-002
   13.653270658850669       -6.8161529556962211E-002
   13.700513809919357       -6.8156770838245520E-002
   13.747756960988045       -6.8152099901786542E-002
   13.795000112056732       -6.8147515352886517E-002
   13.842243263125420       -6.8143015807440185E-002
   13.889486414194106       -6.8138599892359486E-002
   13.936729565262794       -6.8134266246042879E-002
   13.983972716331483       -6.8130013518776317E-002
   14.031215867400169       -6.8125840373093188E-002
   14.078459018468857       -6.8121745484143320E-002
   14.125702169537544       -6.8117727540007500E-002
   14.172945320606232       -6.8113785242002609E-002
   14.220188471674920       -6.8109917304950515E-002
   14.267431622743606       -6.8106122457433235E-002
   14.314674773812294       -6.8102399442029851E-002
   14.361917924880981       -6.8098747015503280E-002
   14.409161075949669       -6.8095163949009940E-002
   14.456404227018357       -6.8091649028254611E-002
   14.503647378087043       -6.8088201053640829E-002
   14.550890529155732       -6.8084818840407513E-002
   14.598133680224418       -6.8081501218733853E-002
   14.645376831293106       -6.8078247033830364E-002
   14.692619982361794       -6.8075055146034610E-002
   14.739863133430481       -6.8071924430865835E-002
   14.787106284499169       -6.8068853779075136E-002
   14.834349435567855       -6.8065842096681872E-002
   14.881592586636543       -6.8062888304996488E-002
   14.928835737705231       -6.8059991340634132E-002
   14.976078888773918       -6.8057150155505605E-002
   15.023322039842606       -6.8054363716812713E-002
   15.070565190911292       -6.8051631007007368E-002
   15.117808341979980       -6.8048951023773285E-002
   15.165051493048669       -6.8046322779985013E-002
   15.212294644117357       -6.8043745303621325E-002
   15.259537795186041       -6.8041217637747051E-002
   15.306780946254730       -6.8038738840403692E-002
   15.354024097323418       -6.8036307984550168E-002
   15.401267248392106       -6.8033924157971729E-002
   15.448510399460794       -6.8031586463179708E-002
   15.495753550529479       -6.8029294017320371E-002
   15.542996701598167       -6.8027045952061022E-002
   15.590239852666855       -6.8024841413485235E-002
   15.637483003735543       -6.8022679561965227E-002
   15.684726154804231       -6.8020559572047959E-002
   15.731969305872916       -6.8018480632313957E-002
   15.779212456941604       -6.8016441945267861E-002
   15.826455608010292       -6.8014442727174468E-002
   15.873698759078980       -6.8012482207944785E-002
   15.920941910147668       -6.8010559630972009E-002
   15.968185061216353       -6.8008674252999418E-002
   16.015428212285041       -6.8006825343960867E-002
   16.062671363353729       -6.8005012186844113E-002
   16.109914514422417       -6.8003234077517696E-002
   16.157157665491106       -6.8001490324580513E-002
   16.204400816559790       -6.7999780249216088E-002
   16.251643967628478       -6.7998103185019393E-002
   16.298887118697166       -6.7996458477837390E-002
   16.346130269765855       -6.7994845485614103E-002
   16.393373420834543       -6.7993263578212948E-002
   16.440616571903227       -6.7991712137275451E-002
   16.487859722971915       -6.7990190556034433E-002
   16.535102874040604       -6.7988698239154613E-002
   16.582346025109292       -6.7987234602577606E-002
   16.629589176177980       -6.7985799073348813E-002
   16.676832327246665       -6.7984391089444290E-002
   16.724075478315353       -6.7983010099615840E-002
   16.771318629384041       -6.7981655563226925E-002
   16.818561780452729       -6.7980326950079648E-002
   16.865804931521417       -6.7979023740246017E-002
   16.913048082590102       -6.7977745423931354E-002
   16.960291233658790       -6.7976491501278366E-002
   17.007534384727478       -6.7975261482216762E-002
   17.054777535796166       -6.7974054886312876E-002
   17.102020686864854       -6.7972871242605676E-002
   17.149263837933539       -6.7971710089424528E-002
   17.196506989002227       -6.7970570974261540E-002
   17.243750140070915       -6.7969453453612161E-002
   17.290993291139603       -6.7968357092788353E-002
   17.338236442208292       -6.7967281465804663E-002
   17.385479593276976       -6.7966226155200551E-002
   17.432722744345664       -6.7965190751899135E-002
   17.479965895414352       -6.7964174855052281E-002
   17.527209046483041       -6.7963178071903885E-002
   17.574452197551729       -6.7962200017616770E-002
   17.621695348620413       -6.7961240315167884E-002
   17.668938499689101       -6.7960298595170554E-002
   17.716181650757790       -6.7959374495746974E-002
   17.763424801826478       -6.7958467662391511E-002
   17.810667952895166       -6.7957577747824821E-002
   17.857911103963851       -6.7956704411870947E-002
   17.905154255032539       -6.7955847321302318E-002
   17.952397406101227       -6.7955006149730393E-002
   17.999640557169915       -6.7954180577450826E-002
   18.046883708238603       -6.7953370291343129E-002
   18.094126859307288       -6.7952574984720418E-002
   18.141370010375976       -6.7951794357210812E-002
   18.188613161444664       -6.7951028114639114E-002
   18.235856312513352       -6.7950275968903698E-002
   18.283099463582040       -6.7949537637848931E-002
   18.330342614650725       -6.7948812845169543E-002
   18.377585765719413       -6.7948101320255680E-002
   18.424828916788101       -6.7947402798129122E-002
   18.472072067856789       -6.7946717019288339E-002
   18.519315218925477       -6.7946043729621972E-002
   18.566558369994162       -6.7945382680290323E-002
   18.613801521062850       -6.7944733627629719E-002
   18.661044672131538       -6.7944096333029419E-002
   18.708287823200227       -6.7943470562849689E-002
   18.755530974268915       -6.7942856088307801E-002
   18.802774125337599       -6.7942252685377902E-002
   18.850017276406287       -6.7941660134708884E-002
   18.897260427474976       -6.7941078221496878E-002
   18.944503578543664       -6.7940506735435127E-002
   18.991746729612352       -6.7939945470581839E-002
   19.038989880681036       -6.7939394225291855E-002
   19.086233031749725       -6.7938852802116367E-002
   19.133476182818413       -6.7938321007730090E-002
   19.180719333887101       -6.7937798652826412E-002
   19.227962484955789       -6.7937285552044507E-002
   19.275205636024474       -6.7936781523891848E-002
   19.322448787093162       -6.7936286390648623E-002
   19.369691938161850       -6.7935799978303804E-002
   19.416935089230538       -6.7935322116464136E-002
   19.464178240299226       -6.7934852638285748E-002
   19.511421391367911       -6.7934391380401221E-002
   19.558664542436599       -6.7933938182828529E-002
   19.605907693505287       -6.7933492888934535E-002
   19.653150844573975       -6.7933055345325663E-002
   19.700393995642663       -6.7932625401806876E-002
   19.747637146711348       -6.7932202911290568E-002
   19.794880297780036       -6.7931787729750975E-002
   19.842123448848724       -6.7931379716155843E-002
   19.889366599917413       -6.7930978732393579E-002
   19.936609750986101       -6.7930584643209335E-002
   19.983852902054785       -6.7930197316159568E-002
   20.031096053123473       -6.7929816621534550E-002
   20.078339204192162       -6.7929442432312748E-002
   20.125582355260850       -6.7929074624097113E-002
   20.172825506329538       -6.7928713075064900E-002
   20.220068657398222       -6.7928357665899358E-002
   20.267311808466911       -6.7928008279753302E-002
   20.314554959535599       -6.7927664802180654E-002
   20.361798110604287       -6.7927327121091050E-002
   20.409041261672975       -6.7926995126713255E-002
   20.456284412741660       -6.7926668711517757E-002
   20.503527563810348       -6.7926347770189424E-002
   20.550770714879036       -6.7926032199577366E-002
   20.598013865947724       -6.7925721898631219E-002
   20.645257017016412       -6.7925416768387370E-002
   20.692500168085097       -6.7925116711891539E-002
   20.739743319153785       -6.7924821634185173E-002
Plot  = 1.0 10.0 0.1
Step = 0.000000001
Grid  = 470
Range = 0.4 3000.0
Vibrations = 100
Rotations  = 0 1
Orbital    = 0

-- ----------------------------------

--- Start Module: vibrot at Thu Oct 27 14:45:06 2022 ---

()()()()()()()()()()()()()()()()()()()()()()()()()()()()()()()()()()()()()()()()()()()()()()()()()()

                                              &VIBROT

                                   only a single process is used
                       available to each process: 2.0 GB of memory, 1 thread?
                                             pid: 82560
()()()()()()()()()()()()()()()()()()()()()()()()()()()()()()()()()()()()()()()()()()()()()()()()()()


 Vibration-Rotation spectrum for the LiLi molecule.
 Vib-Rot spectrum for Li2(X)                                                     

 Rotational quantum number range   0  1
 Electronic angular momentum       0
 Vibrational quantum number range  0 99
 Mass of atom   7 Li   12789.391884 au
 Mass of atom   7 Li   12789.391884 au
 Reduced mass           6394.695942 au

 Statistics for numerical integration
 Number of steps           469
 Step length               0.019066
 Radial integration range  0.400000********** au
 logarithmic range        -0.916291  8.006368

 Spectroscopic constants will be computed
 Matrix elements of operators will not be computed

 Potential read from input
       R(au)     E(au)
     0.000000    1.360890
     0.047243  655.122450
     0.094486  164.863317
     0.141729   73.712188
     0.188973   41.686644
     0.236216   26.807119
     0.283459   18.693883
     0.330702   13.783412
     0.377945   10.584310
     0.425188    8.382737
     0.472432    6.802010
     0.519675    5.628020
     0.566918    4.731715
     0.614161    4.031525
     0.661404    3.473828
     0.708647    3.022189
     0.755890    2.651143
     0.803134    2.342455
     0.850377    2.082783
     0.897620    1.862184
     0.944863    1.673125
     0.992106    1.509809
     1.039349    1.367719
     1.086592    1.243292
     1.133836    1.133686
     1.181079    1.036613
     1.228322    0.950210
     1.275565    0.872953
     1.322808    0.803580
     1.370051    0.741043
     1.417295    0.684464
     1.464538    0.633102
     1.511781    0.586329
     1.559024    0.543610
     1.606267    0.504487
     1.653510    0.468564
     1.700753    0.435502
     1.747997    0.405003
     1.795240    0.376809
     1.842483    0.350694
     1.889726    0.326459
     1.936969    0.303930
     1.984212    0.282952
     2.031455    0.263388
     2.078699    0.245115
     2.125942    0.228024
     2.173185    0.212019
     2.220428    0.197012
     2.267671    0.182924
     2.314914    0.169684
     2.362158    0.157230
     2.409401    0.145501
     2.456644    0.134447
     2.503887    0.124020
     2.551130    0.114176
     2.598373    0.104875
     2.645616    0.096081
     2.692860    0.087761
     2.740103    0.079884
     2.787346    0.072423
     2.834589    0.065351
     2.881832    0.058645
     2.929075    0.052283
     2.976319    0.046245
     3.023562    0.040511
     3.070805    0.035064
     3.118048    0.029888
     3.165291    0.024968
     3.212534    0.020290
     3.259777    0.015841
     3.307021    0.011609
     3.354264    0.007581
     3.401507    0.003748
     3.448750    0.000099
     3.495993   -0.003375
     3.543236   -0.006683
     3.590479   -0.009833
     3.637723   -0.012832
     3.684966   -0.015690
     3.732209   -0.018411
     3.779452   -0.021004
     3.826695   -0.023473
     3.873938   -0.025825
     3.921182   -0.028066
     3.968425   -0.030200
     4.015668   -0.032233
     4.062911   -0.034169
     4.110154   -0.036013
     4.157397   -0.037769
     4.204640   -0.039442
     4.251884   -0.041034
     4.299127   -0.042549
     4.346370   -0.043992
     4.393613   -0.045365
     4.440856   -0.046671
     4.488099   -0.047914
     4.535343   -0.049097
     4.582586   -0.050221
     4.629829   -0.051290
     4.677072   -0.052307
     4.724315   -0.053273
     4.771558   -0.054191
     4.818801   -0.055063
     4.866045   -0.055891
     4.913288   -0.056677
     4.960531   -0.057423
     5.007774   -0.058131
     5.055017   -0.058803
     5.102260   -0.059440
     5.149503   -0.060044
     5.196747   -0.060617
     5.243990   -0.061159
     5.291233   -0.061673
     5.338476   -0.062159
     5.385719   -0.062619
     5.432962   -0.063054
     5.480206   -0.063466
     5.527449   -0.063855
     5.574692   -0.064223
     5.621935   -0.064570
     5.669178   -0.064898
     5.716421   -0.065207
     5.763664   -0.065498
     5.810908   -0.065773
     5.858151   -0.066032
     5.905394   -0.066276
     5.952637   -0.066505
     5.999880   -0.066721
     6.047123   -0.066924
     6.094366   -0.067114
     6.141610   -0.067293
     6.188853   -0.067460
     6.236096   -0.067618
     6.283339   -0.067765
     6.330582   -0.067902
     6.377825   -0.068031
     6.425069   -0.068151
     6.472312   -0.068264
     6.519555   -0.068368
     6.566798   -0.068466
     6.614041   -0.068556
     6.661284   -0.068640
     6.708527   -0.068718
     6.755771   -0.068791
     6.803014   -0.068857
     6.850257   -0.068919
     6.897500   -0.068976
     6.944743   -0.069028
     6.991986   -0.069076
     7.039230   -0.069120
     7.086473   -0.069160
     7.133716   -0.069196
     7.180959   -0.069229
     7.228202   -0.069259
     7.275445   -0.069285
     7.322688   -0.069309
     7.369932   -0.069330
     7.417175   -0.069349
     7.464418   -0.069365
     7.511661   -0.069379
     7.558904   -0.069391
     7.606147   -0.069401
     7.653390   -0.069409
     7.700634   -0.069415
     7.747877   -0.069420
     7.795120   -0.069423
     7.842363   -0.069425
     7.889606   -0.069425
     7.936849   -0.069424
     7.984093   -0.069422
     8.031336   -0.069419
     8.078579   -0.069415
     8.125822   -0.069410
     8.173065   -0.069404
     8.220308   -0.069397
     8.267551   -0.069390
     8.314795   -0.069381
     8.362038   -0.069372
     8.409281   -0.069363
     8.456524   -0.069353
     8.503767   -0.069342
     8.551010   -0.069331
     8.598253   -0.069319
     8.645497   -0.069307
     8.692740   -0.069295
     8.739983   -0.069282
     8.787226   -0.069269
     8.834469   -0.069256
     8.881712   -0.069242
     8.928956   -0.069228
     8.976199   -0.069214
     9.023442   -0.069200
     9.070685   -0.069186
     9.117928   -0.069171
     9.165171   -0.069157
     9.212414   -0.069142
     9.259658   -0.069127
     9.306901   -0.069112
     9.354144   -0.069098
     9.401387   -0.069083
     9.448630   -0.069068
     9.495873   -0.069053
     9.543117   -0.069038
     9.590360   -0.069023
     9.637603   -0.069008
     9.684846   -0.068993
     9.732089   -0.068978
     9.779332   -0.068963
     9.826575   -0.068948
     9.873819   -0.068933
     9.921062   -0.068919
     9.968305   -0.068904
    10.015548   -0.068889
    10.062791   -0.068875
    10.110034   -0.068861
    10.157277   -0.068846
    10.204521   -0.068832
    10.251764   -0.068818
    10.299007   -0.068804
    10.346250   -0.068791
    10.393493   -0.068777
    10.440736   -0.068763
    10.487980   -0.068750
    10.535223   -0.068737
    10.582466   -0.068723
    10.629709   -0.068710
    10.676952   -0.068697
    10.724195   -0.068685
    10.771438   -0.068672
    10.818682   -0.068660
    10.865925   -0.068647
    10.913168   -0.068635
    10.960411   -0.068623
    11.007654   -0.068611
    11.054897   -0.068599
    11.102141   -0.068588
    11.149384   -0.068576
    11.196627   -0.068565
    11.243870   -0.068554
    11.291113   -0.068543
    11.338356   -0.068532
    11.385599   -0.068521
    11.432843   -0.068510
    11.480086   -0.068500
    11.527329   -0.068490
    11.574572   -0.068480
    11.621815   -0.068470
    11.669058   -0.068460
    11.716301   -0.068450
    11.763545   -0.068440
    11.810788   -0.068431
    11.858031   -0.068422
    11.905274   -0.068412
    11.952517   -0.068403
    11.999760   -0.068395
    12.047004   -0.068386
    12.094247   -0.068377
    12.141490   -0.068369
    12.188733   -0.068360
    12.235976   -0.068352
    12.283219   -0.068344
    12.330462   -0.068336
    12.377706   -0.068328
    12.424949   -0.068321
    12.472192   -0.068313
    12.519435   -0.068306
    12.566678   -0.068299
    12.613921   -0.068291
    12.661164   -0.068284
    12.708408   -0.068277
    12.755651   -0.068271
    12.802894   -0.068264
    12.850137   -0.068257
    12.897380   -0.068251
    12.944623   -0.068244
    12.991867   -0.068238
    13.039110   -0.068232
    13.086353   -0.068226
    13.133596   -0.068220
    13.180839   -0.068214
    13.228082   -0.068209
    13.275325   -0.068203
    13.322569   -0.068197
    13.369812   -0.068192
    13.417055   -0.068187
    13.464298   -0.068181
    13.511541   -0.068176
    13.558784   -0.068171
    13.606028   -0.068166
    13.653271   -0.068162
    13.700514   -0.068157
    13.747757   -0.068152
    13.795000   -0.068148
    13.842243   -0.068143
    13.889486   -0.068139
    13.936730   -0.068134
    13.983973   -0.068130
    14.031216   -0.068126
    14.078459   -0.068122
    14.125702   -0.068118
    14.172945   -0.068114
    14.220188   -0.068110
    14.267432   -0.068106
    14.314675   -0.068102
    14.361918   -0.068099
    14.409161   -0.068095
    14.456404   -0.068092
    14.503647   -0.068088
    14.550891   -0.068085
    14.598134   -0.068082
    14.645377   -0.068078
    14.692620   -0.068075
    14.739863   -0.068072
    14.787106   -0.068069
    14.834349   -0.068066
    14.881593   -0.068063
    14.928836   -0.068060
    14.976079   -0.068057
    15.023322   -0.068054
    15.070565   -0.068052
    15.117808   -0.068049
    15.165051   -0.068046
    15.212295   -0.068044
    15.259538   -0.068041
    15.306781   -0.068039
    15.354024   -0.068036
    15.401267   -0.068034
    15.448510   -0.068032
    15.495754   -0.068029
    15.542997   -0.068027
    15.590240   -0.068025
    15.637483   -0.068023
    15.684726   -0.068021
    15.731969   -0.068018
    15.779212   -0.068016
    15.826456   -0.068014
    15.873699   -0.068012
    15.920942   -0.068011
    15.968185   -0.068009
    16.015428   -0.068007
    16.062671   -0.068005
    16.109915   -0.068003
    16.157158   -0.068001
    16.204401   -0.068000
    16.251644   -0.067998
    16.298887   -0.067996
    16.346130   -0.067995
    16.393373   -0.067993
    16.440617   -0.067992
    16.487860   -0.067990
    16.535103   -0.067989
    16.582346   -0.067987
    16.629589   -0.067986
    16.676832   -0.067984
    16.724075   -0.067983
    16.771319   -0.067982
    16.818562   -0.067980
    16.865805   -0.067979
    16.913048   -0.067978
    16.960291   -0.067976
    17.007534   -0.067975
    17.054778   -0.067974
    17.102021   -0.067973
    17.149264   -0.067972
    17.196507   -0.067971
    17.243750   -0.067969
    17.290993   -0.067968
    17.338236   -0.067967
    17.385480   -0.067966
    17.432723   -0.067965
    17.479966   -0.067964
    17.527209   -0.067963
    17.574452   -0.067962
    17.621695   -0.067961
    17.668938   -0.067960
    17.716182   -0.067959
    17.763425   -0.067958
    17.810668   -0.067958
    17.857911   -0.067957
    17.905154   -0.067956
    17.952397   -0.067955
    17.999641   -0.067954
    18.046884   -0.067953
    18.094127   -0.067953
    18.141370   -0.067952
    18.188613   -0.067951
    18.235856   -0.067950
    18.283099   -0.067950
    18.330343   -0.067949
    18.377586   -0.067948
    18.424829   -0.067947
    18.472072   -0.067947
    18.519315   -0.067946
    18.566558   -0.067945
    18.613802   -0.067945
    18.661045   -0.067944
    18.708288   -0.067943
    18.755531   -0.067943
    18.802774   -0.067942
    18.850017   -0.067942
    18.897260   -0.067941
    18.944504   -0.067941
    18.991747   -0.067940
    19.038990   -0.067939
    19.086233   -0.067939
    19.133476   -0.067938
    19.180719   -0.067938
    19.227962   -0.067937
    19.275206   -0.067937
    19.322449   -0.067936
    19.369692   -0.067936
    19.416935   -0.067935
    19.464178   -0.067935
    19.511421   -0.067934
    19.558665   -0.067934
    19.605908   -0.067933
    19.653151   -0.067933
    19.700394   -0.067933
    19.747637   -0.067932
    19.794880   -0.067932
    19.842123   -0.067931
    19.889367   -0.067931
    19.936610   -0.067931
    19.983853   -0.067930
    20.031096   -0.067930
    20.078339   -0.067929
    20.125582   -0.067929
    20.172826   -0.067929
    20.220069   -0.067928
    20.267312   -0.067928
    20.314555   -0.067928
    20.361798   -0.067927
    20.409041   -0.067927
    20.456284   -0.067927
    20.503528   -0.067926
    20.550771   -0.067926
    20.598014   -0.067926
    20.645257   -0.067925
    20.692500   -0.067925
    20.739743   -0.067925
 A plot file of the potential will be generated
 Generating plot file:VIBPLT0 

 Scaling parameter for potential:    1.000000

 extremum points
                        R(au)         Value
 Min point         7.880168     -0.069425
 Max point         0.148020     75.400213
 Min point         0.122112     60.176975
 Max point         0.046814    655.204574
 Extrapolated value at infinity    -0.067871


 Eigenstates

  Vib. q.n.   Rot. q.n.    Energy
      0           0      0.000145
      1           0      0.000412
      2           0      0.000650
      3           0      0.000858
      4           0      0.001038
      5           0      0.001189
      6           0      0.001311
      7           0      0.001404
      8           0      0.001468
      9           0      0.001505
     10           0      0.001525
     11           0      0.001538
     12           0      0.001546
     13           0      0.001551
     14           0      0.001554
 ###############################################################################
 ###############################################################################
 ###                                                                         ###
 ###                                                                         ###
 ###    Location: VibRot                                                     ###
 ###                                                                         ###
 ###                                                                         ###
 ###    Failed to find a state.Try decreasing STEP.                          ###
 ###                                                                         ###
 ###                                                                         ###
 ###############################################################################
 ###############################################################################
--- Stop Module: vibrot at Thu Oct 27 14:45:12 2022 /rc=_RC_NOT_CONVERGED_ ---
*** files: li2.VibPlt0 li2.VibWvs xmldump
    saved to directory /Users/arpitarunkumaar/Desktop/untitled folder
--- Module vibrot spent 6 seconds ---

.#######################.
.# Convergence problem #.
.#######################.

    Timing: Wall=6.41 User=6.34 System=0.05
