   This run of MOLCAS is using the pymolcas driver

                             OPE
                             OPE          NMOL  CASOP  ENMOLC A   SO
                 OPE        NMOLC        AS  OP EN  MO LC     AS  OP
                OPENM       OL CA        SO  PE NM  OL CA     SOP EN
                OP EN      MO   LC       AS  OP ENMOL  CASO   PENMOL
                OP  EN     MO   LC       AS  OP EN     MO     LC ASO
               OP   E  NMOL  C  AS       OP  EN MO     LC     AS  OP
               OP  E   NMO   LC AS        OPEN  MO     LCASOP EN   M
               O  PEN   MO  LCA  SO
            OPE   NMO   L   CAS    OP
        OPENMOL  CASOP     ENMOL   CASOPE
     OPENMOLCA   SOPENMOLCASOPEN   MOLCASOPE
    OPENMOLCAS   OP           EN   MOL    CAS
    OPENMOLCAS       OP  ENM        O     LCA
    OPENMOLCAS    OPEN  MOLCASO     P  E  NMO
    OPENMOLCAS     OP               E  N  MOL
    OPENMOLCA   SO           PENM   O  L  CAS    OPEN    MO    LCAS
    OPENMOLCA   SOP           ENM   O  L  CAS   OP  EN  MOLC  AS   O
    OPENMOLCA   SOPE           NM      O  LCA   S      OP  EN MO
    OPENMOLC                AS         O  PEN   M      OL  CA  SOPE
    OPENMO        LCASOPE  NMOL        C  ASO   P      ENMOLC     AS
    OPE     NMO      LCA  SO     P     E   NM   OL  CA SO  PE N   MO
          OPENMOLCA            SOPE   NMO        LCAS  O    P  ENMO
     OPENMOLCASOPENMOLCASOPENMOLCASOPENMOLCA
        OPENMOLCASOPENMOLCASOPENMOLCASOPE
            OPENMOLCASOPENMOLCASOPENM
               OPENMOLCASOPENMOLCA        version: 22.06
                   OPENMOLCASO
                       OPE                tag: 110-gf028b1278

 OpenMolcas is free software; you can redistribute it and/or modify it
 under the terms of the GNU Lesser General Public License version 2.1.
 OpenMolcas is distributed in the hope that it will be useful, but it
 is provided "as is" and without any express or implied warranties.
 For more details see the full text of the license in the file
 LICENSE or in <http://www.gnu.org/licenses/>.

                 Copyright (C) The OpenMolcas Authors
           For the author list and the recommended citation,
                   consult the file CONTRIBUTORS.md

           *************************************************
           * pymolcas version py2.23                       *
           *   build d53e6f8e18683222a6e02cb84ce98eb3      *
           *   (after the EMIL interpreter by V. Veryazov) *
           *************************************************

configuration info
------------------
Host name: Arpits-MacBook-Air.local (macOS)
C Compiler ID: AppleClang
C flags: -std=gnu99
Fortran Compiler ID: GNU
Fortran flags: -fno-aggressive-loop-optimizations -cpp -fdefault-integer-8 -fmax-stack-var-size=1048576
Definitions: _MOLCAS_;_I8_;_LINUX_;_DARWIN_;_DARWIN_C_SOURCE
Parallel: OFF (GA=OFF)


   ------------------------------------------------------------------------
  |
  |           Project: li2
  |    Submitted from: /Users/arpitarunkumaar/Desktop/untitled folder
  |      Scratch area: /var/folders/c3/rhj39hv90vx5ff1jpz11zd8m0000gn/T/li2
  |   Save outputs to: /Users/arpitarunkumaar/Desktop/untitled folder
  |            Molcas: /Users/arpitarunkumaar/build
  |
  | Scratch area is NOT empty
  |
  |    MOLCAS_DRIVER = /Users/arpitarunkumaar/build/pymolcas
  |    MOLCAS_NPROCS = 1
  |    MOLCAS_SOURCE = /Users/arpitarunkumaar/OpenMolcas
  | MOLCAS_STRUCTURE = 0
  |
   ------------------------------------------------------------------------

++ ---------   Input file   ---------

&VIBROT
RoVibrational spectrum
Title = Vib-Rot spectrum for Li2(x) state-2
Atoms = 0 Li  0 Li
Potential
  0.99446832999587054        16658.276733259241
   1.0062791177630424        13845.497511891688
   1.0180899055302142        11539.812384792353
   1.0299006932973862        9644.4293631369364
   1.0417114810645580        8081.9961312689320
   1.0535222688317298        6790.5118259198671
   1.0653330565989017        5720.1355772243587
   1.0771438443660735        4830.6873046623659
   1.0889546321332455        4089.6846150723613
   1.1007654199004173        3470.7961783312389
   1.1125762076675891        2952.6196444153343
   1.1243869954347609        2517.7132220872395
   1.1361977832019328        2151.8261045769164
   1.1480085709691048        1843.2852232691728
   1.1598193587362766        1582.5052502700366
   1.1716301465034484        1361.5960400477015
   1.1834409342706202        1174.0473149003280
   1.1952517220377921        1014.4747480974703
   1.2070625098049641        878.41497704493952
   1.2188732975721359        762.15971068666954
   1.2306840853393077        662.62115122962246
   1.2424948731064795        577.22256053938418
   1.2543056608736514        503.80906613567157
   1.2661164486408234        440.57479739557141
   1.2779272364079952        386.00322853342533
   1.2897380241751670        338.81822689011921
   1.3015488119423388        297.94379845773341
   1.3133595997095107        262.47091491546001
   1.3251703874766827        231.63011918521551
   1.3369811752438545        204.76885637171344
   1.3487919630110263        181.33267702733900
   1.3606027507781981        160.84962025673559
   1.3724135385453700        142.91721333202347
   1.3842243263125420        127.19162860108062
   1.3960351140797138        113.37862257317326
   1.4078459018468856        101.22595014715375
   1.4196566896140574        90.517002173560215
   1.4314674773812293        81.065459430839383
   1.4432782651484013        72.710792655878464
   1.4550890529155731        65.314468104138740
   1.4668998406827449        58.756742508786282
   1.4787106284499167        52.933951291618456
   1.4905214162170886        47.756210279901438
   1.5023322039842606        43.145464668862978
   1.5141429917514324        39.033830078409800
   1.5259537795186042        35.362179719990728
   1.5377645672857760        32.078939267723385
   1.5495753550529479        29.139057303656507
   1.5613861428201199        26.503124412992513
   1.5731969305872917        24.136618330760360
   1.5850077183544635        22.009256141901975
   1.5968185061216353        20.094437538215303
   1.6086292938888072        18.368765642035644
   1.6204400816559792        16.811634002708995
   1.6322508694231510        15.404870127879958
   1.6440616571903228        14.132427384753118
   1.6558724449574946        12.980118344332546
   1.6676832327246665        11.935383683259921
   1.6794940204918385        10.987091635737848
   1.6913048082590103        10.125363728903585
   1.7031155960261821        9.3414231612475920
   1.7149263837933539        8.6274627137142428
   1.7267371715605258        7.9765295323690397
   1.7385479593276978        7.3824245028558595
   1.7503587470948696        6.8396142609777169
   1.7621695348620414        6.3431541595700205
   1.7739803226292132        5.8886207469253566
   1.7857911103963851        5.4720525126305501
   1.7976018981635571        5.0898978280957392
   1.8094126859307289        4.7389691556916294
   1.8212234736979007        4.4164027260526870
   1.8330342614650725        4.1196229908516893
   1.8448450492322443        3.8463112508664823
   1.8566558369994164        3.5943779387491430
   1.8684666247665882        3.3619381043726482
   1.8802774125337600        3.1472897096733603
   1.8920882003009318        2.9488943908379528
   1.9038989880681039        2.7653603896848198
   1.9157097758352755        2.5954273941512045
   1.9275205636024475        2.4379530607423816
   1.9393313513696195        2.2919010203657928
   1.9511421391367911        2.1563301937602910
   1.9629529269039632        2.0303852642578031
   1.9747637146711348        1.9132881743471239
   1.9865745024383068        1.8043305288074398
   1.9983852902054788        1.7028668013883259
   2.0101960779726507        1.6083082544095773
   2.0220068657398227        1.5201174914764315
   2.0338176535069943        1.4378035729710759
   2.0456284412741663        1.3609176322603329
   2.0574392290413384        1.2890489378140511
   2.0692500168085100        1.2218213527886048
   2.0810608045756820        1.1588901492125130
   2.0928715923428536        1.0999391388117892
   2.1046823801100256        1.0446780868294947
   2.1164931678771977       0.99284037898566524
   2.1283039556443692       0.94418091506711022
   2.1401147434115413       0.89847420558856483
   2.1519255311787129       0.85551265056376757
   2.1637363189458849       0.81510498172758949
   2.1755471067130570       0.77707485158068856
   2.1873578944802285       0.74125955442759461
   2.1991686822474006       0.70750886617083986
   2.2109794700145722       0.67568399103749277
   2.2227902577817442       0.64565660466616526
   2.2346010455489163       0.61730798409490573
   2.2464118333160878       0.59052821617997731
   2.2582226210832599       0.56521547685325468
   2.2700334088504315       0.54127537441098317
   2.2818441966176035       0.51862035072148716
   2.2936549843847756       0.49716913486258046
   2.3054657721519471       0.47684624425430655
   2.3172765599191192       0.45758152884622044
   2.3290873476862908       0.43930975436409159
   2.3408981354534628       0.42197022101319076
   2.3527089232206349       0.40550641439322221
   2.3645197109878064       0.38986568569413799
   2.3763304987549785       0.37499895852932214
   2.3881412865221501       0.36086046001546757
   2.3999520742893221       0.34740747393918703
   2.4117628620564941       0.33460011405526247
   2.4235736498236657       0.32240111574672103
   2.4353844375908378       0.31077564444312400
   2.4471952253580094       0.29969111934343196
   2.4590060131251814       0.28911705112456293
   2.4708168008923534       0.27902489243829820
   2.4826275886595250       0.26938790010920860
   2.4944383764266971       0.26018100804473338
   2.5062491641938687       0.25138070995867146
   2.5180599519610407       0.24296495108947089
   2.5298707397282127       0.23491302816810422
   2.5416815274953843       0.22720549695680559
   2.5534923152625564       0.21982408673903903
   2.5653031030297280       0.21275162119603644
   2.5771138907969000       0.20597194515412320
   2.5889246785640720       0.19946985673196138
   2.6007354663312436       0.19323104445668210
   2.6125462540984157       0.18724202895573500
   2.6243570418655873       0.18149010886373104
   2.6361678296327593       0.17596331061463599
   2.6479786173999313       0.17065034181701139
   2.6597894051671029       0.16554054793536410
   2.6716001929342750       0.16062387202352060
   2.6834109807014466       0.15589081727693746
   2.6952217684686186       0.15133241219000082
   2.7070325562357906       0.14694017812152199
   2.7188433440029622       0.14270609908788937
   2.7306541317701343       0.13862259361765650
   2.7424649195373059       0.13468248851461051
   2.7542757073044779       0.13087899438865741
   2.7660864950716499       0.12720568282477401
   2.7778972828388215       0.12365646507070437
   2.7897080706059936       0.12022557213308817
   2.8015188583731652       0.11690753618061005
   2.8133296461403372       0.11369717316024142
   2.8251404339075092       0.11058956654011808
   2.8345890641212463       0.10817432338618853
   2.9526969417929649        8.2451127754621392E-002
   3.0708048194646835        6.2882868104191220E-002
   3.1889126971364021        4.7360513745319639E-002
   3.3070205748081207        3.4592067503461013E-002
   3.4251284524798393        2.3783015896560910E-002
   3.5432363301515579        1.4445100719231510E-002
   3.6613442078232765        6.2770279667880699E-003
   3.7794520854949951       -9.1144031583910966E-004
   3.8975599631667137       -7.2473424684960644E-003
   4.0156678408384323       -1.2823508180599968E-002
   4.1337757185101509       -1.7714932806062775E-002
   4.2518835961818695       -2.1987117424408627E-002
   4.3699914738535881       -2.5699722897986436E-002
   4.4880993515253067       -2.8907829952680274E-002
   4.6062072291970253       -3.1662211816082815E-002
   4.7243151068687439       -3.4009356685152245E-002
   4.8424229845404625       -3.5991539199905657E-002
   4.9605308622121811       -3.7647003210236014E-002
   5.0786387398838997       -3.9010224339353750E-002
   5.1967466175556183       -4.0112207243941704E-002
   5.3148544952273369       -4.0980788936792356E-002
   5.4329623728990555       -4.1640936561981277E-002
   5.5510702505707741       -4.2115035318513072E-002
   5.6691781282424927       -4.2423161794866451E-002
   5.7872860059142113       -4.2583335898620220E-002
   5.9053938835859299       -4.2611745234121472E-002
   6.0235017612576485       -4.2522939788940992E-002
   6.1416096389293671       -4.2329999905559079E-002
   6.2597175166010857       -4.2044683963412974E-002
   6.3778253942728043       -4.1677562521062111E-002
   6.4959332719445229       -4.1238143295915519E-002
   6.6140411496162415       -4.0734987972850127E-002
   6.7321490272879601       -4.0175819241119404E-002
   6.8502569049596786       -3.9567615687867465E-002
   6.9683647826313972       -3.8916693176291449E-002
   7.0864726603031158       -3.8228773265674899E-002
   7.2045805379748344       -3.7509041025256810E-002
   7.3226884156465530       -3.6762195485018606E-002
   7.4407962933182716       -3.5992495732563662E-002
   7.5589041709899902       -3.5203804589552946E-002
   7.6770120486617088       -3.4399630433979811E-002
   7.7951199263334274       -3.3583166614160033E-002
   7.9132278040051460       -3.2757327353606182E-002
   8.0313356816768646       -3.1924779122878791E-002
   8.1494435593485832       -3.1087966980665779E-002
   8.2675514370203018       -3.0249136080488657E-002
   8.3856593146920204       -2.9410349134660903E-002
   8.5037671923637390       -2.8573500953409998E-002
   8.6218750700354576       -2.7740331189127290E-002
   8.7399829477071762       -2.6912436173377335E-002
   8.8580908253788948       -2.6091280356371930E-002
   8.9761987030506134       -2.5278207472443536E-002
   9.0943065807223320       -2.4474451258218656E-002
   9.2124144583940506       -2.3681145392216097E-002
   9.3305223360657692       -2.2899332307181001E-002
   9.4486302137374878       -2.2129970616635981E-002
   9.5667380914092064       -2.1373941045288950E-002
   9.6848459690809250       -2.0632050909906295E-002
   9.8029538467526436       -1.9905037325559441E-002
   9.9210617244243622       -1.9193569391499320E-002
   10.039169602096081       -1.8498249637433746E-002
   10.157277479767799       -1.7819614993288220E-002
Plot  = 1.0 10.0 0.1
STEP = 0.0001
Grid  = 500
Range = 0.8 10.0
Vibrations = 10
Rotations  = 2 10
Orbital    = 2

-- ----------------------------------

--- Start Module: vibrot at Thu Oct 27 15:32:46 2022 ---

()()()()()()()()()()()()()()()()()()()()()()()()()()()()()()()()()()()()()()()()()()()()()()()()()()

                                              &VIBROT

                                   only a single process is used
                       available to each process: 2.0 GB of memory, 1 thread?
                                             pid: 86433
()()()()()()()()()()()()()()()()()()()()()()()()()()()()()()()()()()()()()()()()()()()()()()()()()()


 Vibration-Rotation spectrum for the LiLi molecule.
 Vib-Rot spectrum for Li2(x) state-2                                             

 Rotational quantum number range   2 10
 Electronic angular momentum       2
 Vibrational quantum number range  0  9
 Mass of atom   7 Li   12789.391884 au
 Mass of atom   7 Li   12789.391884 au
 Reduced mass           6394.695942 au

 Statistics for numerical integration
 Number of steps           499
 Step length               0.005072
 Radial integration range  0.800000 10.000000 au
 logarithmic range        -0.223144  2.302585

 Spectroscopic constants will be computed
 Matrix elements of operators will not be computed

 Potential read from input
       R(au)     E(au)
     0.99446816658.276733
     1.00627913845.497512
     1.01809011539.812385
     1.029901 9644.429363
     1.041711 8081.996131
     1.053522 6790.511826
     1.065333 5720.135577
     1.077144 4830.687305
     1.088955 4089.684615
     1.100765 3470.796178
     1.112576 2952.619644
     1.124387 2517.713222
     1.136198 2151.826105
     1.148009 1843.285223
     1.159819 1582.505250
     1.171630 1361.596040
     1.183441 1174.047315
     1.195252 1014.474748
     1.207063  878.414977
     1.218873  762.159711
     1.230684  662.621151
     1.242495  577.222561
     1.254306  503.809066
     1.266116  440.574797
     1.277927  386.003229
     1.289738  338.818227
     1.301549  297.943798
     1.313360  262.470915
     1.325170  231.630119
     1.336981  204.768856
     1.348792  181.332677
     1.360603  160.849620
     1.372414  142.917213
     1.384224  127.191629
     1.396035  113.378623
     1.407846  101.225950
     1.419657   90.517002
     1.431467   81.065459
     1.443278   72.710793
     1.455089   65.314468
     1.466900   58.756743
     1.478711   52.933951
     1.490521   47.756210
     1.502332   43.145465
     1.514143   39.033830
     1.525954   35.362180
     1.537765   32.078939
     1.549575   29.139057
     1.561386   26.503124
     1.573197   24.136618
     1.585008   22.009256
     1.596819   20.094438
     1.608629   18.368766
     1.620440   16.811634
     1.632251   15.404870
     1.644062   14.132427
     1.655872   12.980118
     1.667683   11.935384
     1.679494   10.987092
     1.691305   10.125364
     1.703116    9.341423
     1.714926    8.627463
     1.726737    7.976530
     1.738548    7.382425
     1.750359    6.839614
     1.762170    6.343154
     1.773980    5.888621
     1.785791    5.472053
     1.797602    5.089898
     1.809413    4.738969
     1.821223    4.416403
     1.833034    4.119623
     1.844845    3.846311
     1.856656    3.594378
     1.868467    3.361938
     1.880277    3.147290
     1.892088    2.948894
     1.903899    2.765360
     1.915710    2.595427
     1.927521    2.437953
     1.939331    2.291901
     1.951142    2.156330
     1.962953    2.030385
     1.974764    1.913288
     1.986575    1.804331
     1.998385    1.702867
     2.010196    1.608308
     2.022007    1.520117
     2.033818    1.437804
     2.045628    1.360918
     2.057439    1.289049
     2.069250    1.221821
     2.081061    1.158890
     2.092872    1.099939
     2.104682    1.044678
     2.116493    0.992840
     2.128304    0.944181
     2.140115    0.898474
     2.151926    0.855513
     2.163736    0.815105
     2.175547    0.777075
     2.187358    0.741260
     2.199169    0.707509
     2.210979    0.675684
     2.222790    0.645657
     2.234601    0.617308
     2.246412    0.590528
     2.258223    0.565215
     2.270033    0.541275
     2.281844    0.518620
     2.293655    0.497169
     2.305466    0.476846
     2.317277    0.457582
     2.329087    0.439310
     2.340898    0.421970
     2.352709    0.405506
     2.364520    0.389866
     2.376330    0.374999
     2.388141    0.360860
     2.399952    0.347407
     2.411763    0.334600
     2.423574    0.322401
     2.435384    0.310776
     2.447195    0.299691
     2.459006    0.289117
     2.470817    0.279025
     2.482628    0.269388
     2.494438    0.260181
     2.506249    0.251381
     2.518060    0.242965
     2.529871    0.234913
     2.541682    0.227205
     2.553492    0.219824
     2.565303    0.212752
     2.577114    0.205972
     2.588925    0.199470
     2.600735    0.193231
     2.612546    0.187242
     2.624357    0.181490
     2.636168    0.175963
     2.647979    0.170650
     2.659789    0.165541
     2.671600    0.160624
     2.683411    0.155891
     2.695222    0.151332
     2.707033    0.146940
     2.718843    0.142706
     2.730654    0.138623
     2.742465    0.134682
     2.754276    0.130879
     2.766086    0.127206
     2.777897    0.123656
     2.789708    0.120226
     2.801519    0.116908
     2.813330    0.113697
     2.825140    0.110590
     2.834589    0.108174
     2.952697    0.082451
     3.070805    0.062883
     3.188913    0.047361
     3.307021    0.034592
     3.425128    0.023783
     3.543236    0.014445
     3.661344    0.006277
     3.779452   -0.000911
     3.897560   -0.007247
     4.015668   -0.012824
     4.133776   -0.017715
     4.251884   -0.021987
     4.369991   -0.025700
     4.488099   -0.028908
     4.606207   -0.031662
     4.724315   -0.034009
     4.842423   -0.035992
     4.960531   -0.037647
     5.078639   -0.039010
     5.196747   -0.040112
     5.314854   -0.040981
     5.432962   -0.041641
     5.551070   -0.042115
     5.669178   -0.042423
     5.787286   -0.042583
     5.905394   -0.042612
     6.023502   -0.042523
     6.141610   -0.042330
     6.259718   -0.042045
     6.377825   -0.041678
     6.495933   -0.041238
     6.614041   -0.040735
     6.732149   -0.040176
     6.850257   -0.039568
     6.968365   -0.038917
     7.086473   -0.038229
     7.204581   -0.037509
     7.322688   -0.036762
     7.440796   -0.035992
     7.558904   -0.035204
     7.677012   -0.034400
     7.795120   -0.033583
     7.913228   -0.032757
     8.031336   -0.031925
     8.149444   -0.031088
     8.267551   -0.030249
     8.385659   -0.029410
     8.503767   -0.028574
     8.621875   -0.027740
     8.739983   -0.026912
     8.858091   -0.026091
     8.976199   -0.025278
     9.094307   -0.024474
     9.212414   -0.023681
     9.330522   -0.022899
     9.448630   -0.022130
     9.566738   -0.021374
     9.684846   -0.020632
     9.802954   -0.019905
     9.921062   -0.019194
    10.039170   -0.018498
    10.157277   -0.017820
 A plot file of the potential will be generated
 Generating plot file:VIBPLT0 

 Scaling parameter for potential:    1.000000

 extremum points
                        R(au)         Value
 Min point         5.873137     -0.042616
 Extrapolated value at infinity     0.018826


 Eigenstates

  Vib. q.n.   Rot. q.n.    Energy
      0           2      0.000585
      1           2      0.001735
      2           2      0.002870
      3           2      0.003991
      4           2      0.005098
      5           2      0.006191
      6           2      0.007270
      7           2      0.008335
      8           2      0.009386
      9           2      0.010423
      0           3      0.000599
      1           3      0.001748
      2           3      0.002883
      3           3      0.004004
      4           3      0.005111
      5           3      0.006204
      6           3      0.007282
      7           3      0.008347
      8           3      0.009398
      9           3      0.010435
      0           4      0.000617
      1           4      0.001766
      2           4      0.002901
      3           4      0.004022
      4           4      0.005128
      5           4      0.006221
      6           4      0.007299
      7           4      0.008364
      8           4      0.009414
      9           4      0.010451
      0           5      0.000639
      1           5      0.001788
      2           5      0.002923
      3           5      0.004044
      4           5      0.005150
      5           5      0.006242
      6           5      0.007320
      7           5      0.008385
      8           5      0.009435
      9           5      0.010471
      0           6      0.000666
      1           6      0.001815
      2           6      0.002949
      3           6      0.004070
      4           6      0.005176
      5           6      0.006268
      6           6      0.007346
      7           6      0.008410
      8           6      0.009460
      9           6      0.010496
      0           7      0.000698
      1           7      0.001846
      2           7      0.002980
      3           7      0.004100
      4           7      0.005206
      5           7      0.006297
      6           7      0.007375
      7           7      0.008439
      8           7      0.009488
      9           7      0.010524
      0           8      0.000734
      1           8      0.001882
      2           8      0.003015
      3           8      0.004135
      4           8      0.005240
      5           8      0.006332
      6           8      0.007409
      7           8      0.008472
      8           8      0.009521
      9           8      0.010557
      0           9      0.000774
      1           9      0.001922
      2           9      0.003055
      3           9      0.004174
      4           9      0.005279
      5           9      0.006370
      6           9      0.007447
      7           9      0.008509
      8           9      0.009558
      9           9      0.010593
      0          10      0.000819
      1          10      0.001966
      2          10      0.003099
      3          10      0.004218
      4          10      0.005322
      5          10      0.006412
      6          10      0.007489
      7          10      0.008551
      8          10      0.009599
      9          10      0.010634

     Rotational constants for vibrational quantum number  0
     B= 0.494733E+00 cm-1     D= 0.749853E-05 cm-1
     Observed and computed term values (cm-1)
       3        0.296814E+01        0.296813E+01        0.808823E-05
       4        0.692480E+01        0.692480E+01        0.307390E-05
       5        0.118693E+02        0.118693E+02        0.259014E-05
       6        0.178007E+02        0.178007E+02       -0.483205E-07
       7        0.247179E+02        0.247179E+02        0.604672E-05
       8        0.326197E+02        0.326197E+02       -0.749939E-05
       9        0.415047E+02        0.415047E+02       -0.654849E-05
      10        0.513712E+02        0.513712E+02        0.567989E-05

     Rotational constants for vibrational quantum number  1
     B= 0.489296E+00 cm-1     D= 0.743980E-05 cm-1
     Observed and computed term values (cm-1)
       3        0.293551E+01        0.293551E+01        0.266321E-05
       4        0.684869E+01        0.684869E+01        0.454937E-05
       5        0.117388E+02        0.117388E+02        0.475095E-05
       6        0.176050E+02        0.176050E+02        0.278210E-05
       7        0.244462E+02        0.244462E+02       -0.990042E-06
       8        0.322611E+02        0.322611E+02       -0.482893E-05
       9        0.410484E+02        0.410484E+02       -0.502768E-05
      10        0.508063E+02        0.508063E+02        0.477584E-05

     Rotational constants for vibrational quantum number  2
     B= 0.483905E+00 cm-1     D= 0.738334E-05 cm-1
     Observed and computed term values (cm-1)
       3        0.290317E+01        0.290316E+01        0.264948E-05
       4        0.677323E+01        0.677322E+01        0.452588E-05
       5        0.116095E+02        0.116095E+02        0.472638E-05
       6        0.174110E+02        0.174110E+02        0.276767E-05
       7        0.241768E+02        0.241768E+02       -0.984973E-06
       8        0.319056E+02        0.319056E+02       -0.480396E-05
       9        0.405959E+02        0.405959E+02       -0.500159E-05
      10        0.502462E+02        0.502462E+02        0.475110E-05

     Rotational constants for vibrational quantum number  3
     B= 0.478553E+00 cm-1     D= 0.732889E-05 cm-1
     Observed and computed term values (cm-1)
       3        0.287106E+01        0.287105E+01        0.263443E-05
       4        0.669831E+01        0.669830E+01        0.450016E-05
       5        0.114810E+02        0.114810E+02        0.469949E-05
       6        0.172184E+02        0.172184E+02        0.275188E-05
       7        0.239093E+02        0.239093E+02       -0.979413E-06
       8        0.315526E+02        0.315526E+02       -0.477661E-05
       9        0.401467E+02        0.401467E+02       -0.497304E-05
      10        0.496902E+02        0.496902E+02        0.472402E-05

     Rotational constants for vibrational quantum number  4
     B= 0.473235E+00 cm-1     D= 0.727645E-05 cm-1
     Observed and computed term values (cm-1)
       3        0.283915E+01        0.283915E+01        0.262049E-05
       4        0.662387E+01        0.662387E+01        0.447632E-05
       5        0.113535E+02        0.113535E+02        0.467457E-05
       6        0.170270E+02        0.170270E+02        0.273726E-05
       7        0.236436E+02        0.236436E+02       -0.974261E-06
       8        0.312018E+02        0.312018E+02       -0.475128E-05
       9        0.397004E+02        0.397004E+02       -0.494660E-05
      10        0.491378E+02        0.491378E+02        0.469894E-05

     Rotational constants for vibrational quantum number  5
     B= 0.467949E+00 cm-1     D= 0.722582E-05 cm-1
     Observed and computed term values (cm-1)
       3        0.280744E+01        0.280744E+01        0.260781E-05
       4        0.654988E+01        0.654987E+01        0.445466E-05
       5        0.112266E+02        0.112266E+02        0.465192E-05
       6        0.168368E+02        0.168368E+02        0.272396E-05
       7        0.233794E+02        0.233794E+02       -0.969581E-06
       8        0.308532E+02        0.308532E+02       -0.472824E-05
       9        0.392567E+02        0.392568E+02       -0.492255E-05
      10        0.485886E+02        0.485886E+02        0.467613E-05

     Rotational constants for vibrational quantum number  6
     B= 0.462693E+00 cm-1     D= 0.717692E-05 cm-1
     Observed and computed term values (cm-1)
       3        0.277590E+01        0.277590E+01        0.259541E-05
       4        0.647629E+01        0.647629E+01        0.443345E-05
       5        0.111005E+02        0.111005E+02        0.462973E-05
       6        0.166476E+02        0.166476E+02        0.271093E-05
       7        0.231167E+02        0.231167E+02       -0.965008E-06
       8        0.305064E+02        0.305065E+02       -0.470569E-05
       9        0.388155E+02        0.388155E+02       -0.489899E-05
      10        0.480424E+02        0.480424E+02        0.465378E-05

     Rotational constants for vibrational quantum number  7
     B= 0.457463E+00 cm-1     D= 0.712984E-05 cm-1
     Observed and computed term values (cm-1)
       3        0.274453E+01        0.274452E+01        0.258233E-05
       4        0.640309E+01        0.640309E+01        0.441108E-05
       5        0.109750E+02        0.109750E+02        0.460633E-05
       6        0.164594E+02        0.164594E+02        0.269718E-05
       7        0.228553E+02        0.228553E+02       -0.960188E-06
       8        0.301615E+02        0.301615E+02       -0.468189E-05
       9        0.383766E+02        0.383766E+02       -0.487412E-05
      10        0.474991E+02        0.474991E+02        0.463020E-05

     Rotational constants for vibrational quantum number  8
     B= 0.452258E+00 cm-1     D= 0.708480E-05 cm-1
     Observed and computed term values (cm-1)
       3        0.271330E+01        0.271330E+01        0.256798E-05
       4        0.633023E+01        0.633023E+01        0.438654E-05
       5        0.108501E+02        0.108501E+02        0.458067E-05
       6        0.162721E+02        0.162721E+02        0.268209E-05
       7        0.225952E+02        0.225952E+02       -0.954900E-06
       8        0.298182E+02        0.298182E+02       -0.465579E-05
       9        0.379397E+02        0.379397E+02       -0.484685E-05
      10        0.469583E+02        0.469582E+02        0.460434E-05

     Rotational constants for vibrational quantum number  9
     B= 0.447075E+00 cm-1     D= 0.704206E-05 cm-1
     Observed and computed term values (cm-1)
       3        0.268220E+01        0.268220E+01        0.255227E-05
       4        0.625767E+01        0.625767E+01        0.435968E-05
       5        0.107257E+02        0.107257E+02        0.455257E-05
       6        0.160856E+02        0.160856E+02        0.266559E-05
       7        0.223361E+02        0.223361E+02       -0.949109E-06
       8        0.294763E+02        0.294763E+02       -0.462722E-05
       9        0.375046E+02        0.375046E+02       -0.481699E-05
      10        0.464196E+02        0.464196E+02        0.457604E-05

     Rotational constants B(nv) and D(nv) in cm-1
       1        0.494733E+00        0.749853E-05
       2        0.489296E+00        0.743980E-05
       3        0.483905E+00        0.738334E-05
       4        0.478553E+00        0.732889E-05
       5        0.473235E+00        0.727645E-05
       6        0.467949E+00        0.722582E-05
       7        0.462693E+00        0.717692E-05
       8        0.457463E+00        0.712984E-05
       9        0.452258E+00        0.708480E-05
      10        0.447075E+00        0.704206E-05

     Spectroscopic constants De= 0.751220E-05 cm-1  Betae=-0.507106E-07 cm-1
     Observed and computed D values
       0        0.749853E-05        0.748684E-05        0.116893E-07
       1        0.743980E-05        0.743613E-05        0.366554E-08
       2        0.738334E-05        0.738542E-05       -0.208079E-08
       3        0.732889E-05        0.733471E-05       -0.582267E-08
       4        0.727645E-05        0.728400E-05       -0.754940E-08
       5        0.722582E-05        0.723329E-05       -0.746956E-08
       6        0.717692E-05        0.718258E-05       -0.566174E-08
       7        0.712984E-05        0.713187E-05       -0.203072E-08
       8        0.708480E-05        0.708116E-05        0.364515E-08
       9        0.704206E-05        0.703045E-05        0.116149E-07

     Spectroscopic constants Be,Alphae and Gammae
     Be= 0.497440E+00 cm-1    Alphae= 0.544846E-02 cm-1    Gammae= 0.155955E-04
     Observed and computed B values
       0        0.494733E+00        0.494720E+00        0.138776E-04
       1        0.489296E+00        0.489302E+00       -0.614564E-05
       2        0.483905E+00        0.483916E+00       -0.113214E-04
       3        0.478553E+00        0.478561E+00       -0.849956E-05
       4        0.473235E+00        0.473238E+00       -0.235279E-05
       5        0.467949E+00        0.467945E+00        0.417020E-05
       6        0.462693E+00        0.462684E+00        0.887365E-05
       7        0.457463E+00        0.457454E+00        0.961381E-05
       8        0.452258E+00        0.452255E+00        0.374872E-05
       9        0.447075E+00        0.447087E+00       -0.119646E-04

     Vibrational constants we  = 0.256301E+03 cm-1
                           wexe=-0.174929E+01 cm-1
                           weye= 0.123988E-01 cm-1
     Observed and computed band origins
       0        0.128419E+03        0.127715E+03        0.704167E+00
       1        0.380743E+03        0.380558E+03        0.185797E+00
       2        0.629918E+03        0.630013E+03       -0.958064E-01
       3        0.875967E+03        0.876157E+03       -0.189092E+00
       4        0.111891E+04        0.111906E+04       -0.150844E+00
       5        0.135876E+04        0.135880E+04       -0.411781E-01
       6        0.159553E+04        0.159545E+04        0.785094E-01
       7        0.182924E+04        0.182909E+04        0.145949E+00
       8        0.205989E+04        0.205979E+04        0.975252E-01
       9        0.228748E+04        0.228762E+04       -0.132427E+00


     Spectroscopic constants for LiLi


     Range of J-values used in fit  2 10
     Range of v-values used in fit  0  9



     Re(a)                 3.1079
     De(ev)                1.6719
     D0(ev)                1.6560
     we(cm-1)        0.256301E+03
     wexe(cm-1)     -0.174929E+01
     weye(cm-1)      0.123988E-01
     Be(cm-1)        0.497440E+00
     Alphae(cm-1)    0.544846E-02
     Gammae(cm-1)    0.155955E-04
     Dele(cm-1)      0.751220E-05
     Betae(cm-1)    -0.507106E-07


     Max deviation in term values is  0.31E+01 cm(-1)


     Term values(observed and computed) in cm(-1)

 J-value         2                     3                     4                     5                     6

 v-value
     0    128.42    130.68      131.39    133.65      135.34    137.61      140.29    142.55      146.22    148.48
     1    380.74    383.49      383.68    386.43      387.59    390.34      392.48    395.23      398.35    401.10
     2    629.92    632.92      632.82    635.82      636.69    639.69      641.53    644.52      647.33    650.32
     3    875.97    879.03      878.84    881.90      882.67    885.72      887.45    890.51      893.19    896.24
     4   1118.91   1121.90     1121.75   1124.74     1125.53   1128.52     1130.26   1133.25     1135.94   1138.92
     5   1358.76   1361.61     1361.57   1364.42     1365.31   1368.16     1369.99   1372.83     1375.60   1378.44
     6   1595.53   1598.23     1598.31   1601.01     1602.01   1604.71     1606.63   1609.33     1612.18   1614.87
     7   1829.24   1831.84     1831.98   1834.58     1835.64   1838.24     1840.21   1842.81     1845.70   1848.29
     8   2059.89   2062.50     2062.60   2065.21     2066.22   2068.83     2070.74   2073.35     2076.16   2078.77
     9   2287.48   2290.30     2290.17   2292.98     2293.74   2296.56     2298.21   2301.02     2303.57   2306.38

 J-value         7                     8                     9                    10

 v-value
     0    153.14    155.40      161.04    163.30      169.92    172.18      179.79    182.04
     1    405.19    407.94      413.00    415.75      421.79    424.53      431.55    434.29
     2    654.09    657.09      661.82    664.82      670.51    673.51      680.16    683.15
     3    899.88    902.93      907.52    910.57      916.11    919.17      925.66    928.71
     4   1142.55   1145.54     1150.11   1153.10     1158.61   1161.59     1168.05   1171.03
     5   1382.14   1384.99     1389.61   1392.46     1398.02   1400.86     1407.35   1410.19
     6   1618.65   1621.34     1626.04   1628.73     1634.35   1637.04     1643.58   1646.26
     7   1852.09   1854.69     1859.40   1861.99     1867.61   1870.20     1876.74   1879.32
     8   2082.48   2085.09     2089.70   2092.31     2097.82   2100.43     2106.84   2109.45
     9   2309.82   2312.63     2316.96   2319.77     2324.99   2327.80     2333.90   2336.71


     observed G-values in cm(-1)

     v      G(v)     deltaG(v+1/2)
     0     128.42
                        252.32
     1     380.74
                        249.17
     2     629.92
                        246.05
     3     875.97
                        242.94
     4    1118.91
                        239.85
     5    1358.76
                        236.77
     6    1595.53
                        233.70
     7    1829.24
                        230.65
     8    2059.89
                        227.60
     9    2287.48
--- Stop Module: vibrot at Thu Oct 27 15:32:46 2022 /rc=_RC_ALL_IS_WELL_ ---
*** files: li2.VibPlt0 li2.VibWvs xmldump
    saved to directory /Users/arpitarunkumaar/Desktop/untitled folder

.##################.
.# Happy landing! #.
.##################.

    Timing: Wall=0.05 User=0.04 System=0.00
