   This run of MOLCAS is using the pymolcas driver

                             OPE
                             OPE          NMOL  CASOP  ENMOLC A   SO
                 OPE        NMOLC        AS  OP EN  MO LC     AS  OP
                OPENM       OL CA        SO  PE NM  OL CA     SOP EN
                OP EN      MO   LC       AS  OP ENMOL  CASO   PENMOL
                OP  EN     MO   LC       AS  OP EN     MO     LC ASO
               OP   E  NMOL  C  AS       OP  EN MO     LC     AS  OP
               OP  E   NMO   LC AS        OPEN  MO     LCASOP EN   M
               O  PEN   MO  LCA  SO
            OPE   NMO   L   CAS    OP
        OPENMOL  CASOP     ENMOL   CASOPE
     OPENMOLCA   SOPENMOLCASOPEN   MOLCASOPE
    OPENMOLCAS   OP           EN   MOL    CAS
    OPENMOLCAS       OP  ENM        O     LCA
    OPENMOLCAS    OPEN  MOLCASO     P  E  NMO
    OPENMOLCAS     OP               E  N  MOL
    OPENMOLCA   SO           PENM   O  L  CAS    OPEN    MO    LCAS
    OPENMOLCA   SOP           ENM   O  L  CAS   OP  EN  MOLC  AS   O
    OPENMOLCA   SOPE           NM      O  LCA   S      OP  EN MO
    OPENMOLC                AS         O  PEN   M      OL  CA  SOPE
    OPENMO        LCASOPE  NMOL        C  ASO   P      ENMOLC     AS
    OPE     NMO      LCA  SO     P     E   NM   OL  CA SO  PE N   MO
          OPENMOLCA            SOPE   NMO        LCAS  O    P  ENMO
     OPENMOLCASOPENMOLCASOPENMOLCASOPENMOLCA
        OPENMOLCASOPENMOLCASOPENMOLCASOPE
            OPENMOLCASOPENMOLCASOPENM
               OPENMOLCASOPENMOLCA        version: v20.10 ?
                   OPENMOLCASO
                       OPE                tag:

 OpenMolcas is free software; you can redistribute it and/or modify it
 under the terms of the GNU Lesser General Public License version 2.1.
 OpenMolcas is distributed in the hope that it will be useful, but it
 is provided "as is" and without any express or implied warranties.
 For more details see the full text of the license in the file
 LICENSE or in <http://www.gnu.org/licenses/>.

                 Copyright (C) The OpenMolcas Authors
           For the author list and the recommended citation,
                   consult the file CONTRIBUTORS.md

           *************************************************
           * pymolcas version py2.13                       *
           *   build df7b0ad5c844738454f9b0a3ade4831c      *
           *   (after the EMIL interpreter by V. Veryazov) *
           *************************************************

configuration info
------------------
Host name: build-node.computecanada.ca (Linux)
C Compiler ID: Intel
C flags: -O2 -xCore-AVX512 -ftz -fp-speculation=safe -fp-model source -std=gnu99 -qopenmp
Fortran Compiler ID: Intel
Fortran flags: -O2 -xCore-AVX512 -ftz -fp-speculation=safe -fp-model source  -fpp -i8 -r8 -heap-arrays -qopenmp
Definitions: _MOLCAS_;_I8_;_LINUX_;_GA_;_MOLCAS_MPP_;SCALAPACK;_MKL_;_FDE_
Parallel: ON (GA=ON)


   -------------------------------------------------------------------------------------------------------------------------------------
  |
  |           Project: Li2b
  |    Submitted from: /lustre03/project/6058907/nike/vibrot/Li2b
  |      Scratch area: /tmp/Li2b
  |   Save outputs to: /lustre03/project/6058907/nike/vibrot/Li2b
  |            Molcas: /cvmfs/soft.computecanada.ca/easybuild/software/2020/avx512/MPI/intel2020/openmpi4/openmolcas/20.10
  |
  | Scratch area is empty
  |
  |    MOLCAS_DRIVER = /cvmfs/soft.computecanada.ca/easybuild/software/2020/avx512/MPI/intel2020/openmpi4/openmolcas/20.10/sbin/pymolcas
  |    MOLCAS_NPROCS = 1
  |    MOLCAS_SOURCE = /cvmfs/soft.computecanada.ca/easybuild/software/2020/avx512/MPI/intel2020/openmpi4/openmolcas/20.10
  | MOLCAS_STRUCTURE = 0
  |
   -------------------------------------------------------------------------------------------------------------------------------------

++ ---------   Input file   ---------

&VIBROT
RoVibrational spectrum
Title = Vib-Rot spectrum for Li2(b) from Musial with last 4 points removed.
Atoms = 0 Li  0 Li
Potential
3.39999975537132        -0.0255351339591596
3.59999974098140        -0.0344031340145349
3.79999972659147        -0.0413581340579651
3.99999971220155        -0.0466361340909229
4.19999969781163        -0.0504671341148460
4.39999968342171        -0.0530691341310934
4.59999966903178        -0.0546381341408914
4.79999965464186        -0.0553511341453425
4.99999964025194        -0.0553561341453757
5.19999962586202        -0.0547891341418345
5.39999961147209        -0.0537601341354083
5.59999959708217        -0.0523611341266733
5.79999958269225        -0.0506711341161204
5.99999956830233        -0.0487621341041978
6.19999955391240        -0.0466851340912291
6.39999953952248        -0.0444881340775115
6.59999952513256        -0.0422121340632974
6.79999951074264        -0.0398911340488041
6.99999949635271        -0.0375551340342178
7.39999946757287        -0.0329291340053305
7.59999945318295        -0.0306781339912736
7.79999943879302        -0.0284901339776118
8.19999941001318        -0.0243501339517588
8.39999939562326        -0.0224181339396938
8.79999936684341        -0.0188651339175081
9.19999933806357        -0.0157511338980631
9.39999932367364        -0.0143621338893882
9.59999930928372        -0.0130831338814021
9.99999928050388        -0.0108451338674280
10.1999992661140        -0.00987613386137582
10.3999992517240        -0.00900013385590699
10.5999992373341        -0.00821013385097385
10.7999992229442        -0.00750013384653917
10.9999992085543        -0.00686313384256167
11.1999991941643        -0.00629213383899570
11.3999991797744        -0.00578113383580626
11.5999991653845        -0.00532313383294566
11.7999991509946        -0.00491313383038495
11.9999991366047        -0.00454613382809530
12.1999991222147        -0.00421613382603306
12.3999991078248        -0.00392013382418601
12.5999990934349        -0.00365413382252509
12.7999990790450        -0.00341313382101927
12.9999990646550        -0.00319613381966447
13.1999990502651        -0.00299913381843376
13.3999990358752        -0.00282113381732305
13.5999990214853        -0.00265813381630327
13.9999989927054        -0.00237313381452447
14.1999989783155        -0.00224813381374471
14.3999989639256        -0.00213313381302698
14.5999989495357        -0.00202713381236297
14.7999989351457        -0.00192913381175283
14.9999989207558        -0.00183813381118401
15.1999989063659        -0.00175413381065861
15.3999988919760        -0.00167513381016636
15.5999988775860        -0.00160213380970921
15.7999988631961        -0.00153313380927900
15.9999988488062        -0.00146913380887981
16.1999988344163        -0.00140913380850543
16.3999988200264        -0.00135213380814968
16.5999988056364        -0.00129913380781873
16.7999987912465        -0.00124913380750640
16.9999987768566        -0.00120113380720648
17.1999987624667        -0.00115613380692516
17.4999987408818        -0.00109313380653218
17.9999987049070        -0.000999133805944742
18.4999986689322        -0.000916133805425552
18.9999986329574        -0.000842133804964319
19.4999985969826        -0.000776133804552722
19.9999985610078        -0.000717133804184552
20.4999985250329        -0.000664133803853607
20.9999984890581        -0.000616133803553686
21.4999984530833        -0.000573133803284781
21.9999984171085        -0.000533133803034492
22.4999983811337        -0.000498133802815223
22.9999983451589        -0.000465133802610484
23.4999983091841        -0.000436133802428442
23.9999982732093        -0.000408133802254725
24.9999982012597        -0.000361133801961006
25.9999981293101        -0.000320133801704512
26.9999980573605        -0.000285133801487366
27.9999979854109        -0.000255133801299118
28.9999979134612        -0.000230133801141891
29.9999978415116        -0.000207133800999195
31.9999976976124        -0.000170133800767518
33.9999975537132        -0.000142133800593800
35.9999974098140        -0.000119133800451104
37.9999972659147        -0.000101133800337307
39.9999971220155        -8.69538002488219e-05
Scale
Step = 0.000000001
Grid  = 470
Range = 0.3 3000.0
Vibrations = 100
Rotations  = 0 1
Orbital    = 0

-- ----------------------------------

--- Start Module: vibrot at Thu Sep 22 14:08:35 2022 ---
 
()()()()()()()()()()()()()()()()()()()()()()()()()()()()()()()()()()()()()()()()()()()()()()()()()()

                                              &VIBROT

                       only a single process is used, running in SERIAL mode
                      available to each process: 2.0 GB of memory, 40 threads
                                             pid: 69348
()()()()()()()()()()()()()()()()()()()()()()()()()()()()()()()()()()()()()()()()()()()()()()()()()()
 

 Vibration-Rotation spectrum for the LiLi molecule.
 Vib-Rot spectrum for Li2(b) from Musial with last 4 points removed.            
  

 Rotational quantum number range   0  1
 Electronic angular momentum       0
 Vibrational quantum number range  0 99
 Mass of atom   7 Li   0.127894D+05 au
 Mass of atom   7 Li   0.127894D+05 au
 Reduced mass          0.639470D+04 au

 Statistics for numerical integration
 Number of steps           469
 Step length               0.019680
 Radial integration range  0.300000********** au
 logarithmic range        -1.203973  8.006368

 Spectroscopic constants will be computed
 Matrix elements of operators will not be computed

 Potential read from input
       R(au)     E(au)
     3.400000   -0.025535
     3.600000   -0.034403
     3.800000   -0.041358
     4.000000   -0.046636
     4.200000   -0.050467
     4.400000   -0.053069
     4.600000   -0.054638
     4.800000   -0.055351
     5.000000   -0.055356
     5.200000   -0.054789
     5.400000   -0.053760
     5.600000   -0.052361
     5.800000   -0.050671
     6.000000   -0.048762
     6.200000   -0.046685
     6.400000   -0.044488
     6.600000   -0.042212
     6.800000   -0.039891
     6.999999   -0.037555
     7.399999   -0.032929
     7.599999   -0.030678
     7.799999   -0.028490
     8.199999   -0.024350
     8.399999   -0.022418
     8.799999   -0.018865
     9.199999   -0.015751
     9.399999   -0.014362
     9.599999   -0.013083
     9.999999   -0.010845
    10.199999   -0.009876
    10.399999   -0.009000
    10.599999   -0.008210
    10.799999   -0.007500
    10.999999   -0.006863
    11.199999   -0.006292
    11.399999   -0.005781
    11.599999   -0.005323
    11.799999   -0.004913
    11.999999   -0.004546
    12.199999   -0.004216
    12.399999   -0.003920
    12.599999   -0.003654
    12.799999   -0.003413
    12.999999   -0.003196
    13.199999   -0.002999
    13.399999   -0.002821
    13.599999   -0.002658
    13.999999   -0.002373
    14.199999   -0.002248
    14.399999   -0.002133
    14.599999   -0.002027
    14.799999   -0.001929
    14.999999   -0.001838
    15.199999   -0.001754
    15.399999   -0.001675
    15.599999   -0.001602
    15.799999   -0.001533
    15.999999   -0.001469
    16.199999   -0.001409
    16.399999   -0.001352
    16.599999   -0.001299
    16.799999   -0.001249
    16.999999   -0.001201
    17.199999   -0.001156
    17.499999   -0.001093
    17.999999   -0.000999
    18.499999   -0.000916
    18.999999   -0.000842
    19.499999   -0.000776
    19.999999   -0.000717
    20.499999   -0.000664
    20.999998   -0.000616
    21.499998   -0.000573
    21.999998   -0.000533
    22.499998   -0.000498
    22.999998   -0.000465
    23.499998   -0.000436
    23.999998   -0.000408
    24.999998   -0.000361
    25.999998   -0.000320
    26.999998   -0.000285
    27.999998   -0.000255
    28.999998   -0.000230
    29.999998   -0.000207
    31.999998   -0.000170
    33.999998   -0.000142
    35.999997   -0.000119
    37.999997   -0.000101
    39.999997   -0.000087
 Generating plot file:VIBPLT0 

 Scaling parameter for potential:    1.809327

 extremum points
                        R(au)         Value
 Min point            4.899707     -0.055433
 Extrapolated value at infinity    -0.000054


 Eigenstates

  Vib. q.n.   Rot. q.n.    Energy
      0           0      0.000786
      1           0      0.002342
      2           0      0.003880
      3           0      0.005399
      4           0      0.006897
      5           0      0.008376
      6           0      0.009834
      7           0      0.011271
      8           0      0.012688
      9           0      0.014082
     10           0      0.015455
     11           0      0.016805
     12           0      0.018132
     13           0      0.019435
     14           0      0.020715
     15           0      0.021971
     16           0      0.023203
     17           0      0.024409
     18           0      0.025590
     19           0      0.026745
     20           0      0.027872
     21           0      0.028971
     22           0      0.030042
     23           0      0.031083
     24           0      0.032094
     25           0      0.033075
     26           0      0.034023
     27           0      0.034938
     28           0      0.035819
     29           0      0.036664
     30           0      0.037471
     31           0      0.038243
     32           0      0.038936
     33           0      0.039616
     34           0      0.040294
     35           0      0.040587
     36           0      0.041516
     37           0      0.042141
     38           0      0.042541
     39           0      0.043578
     40           0      0.044418
     41           0      0.044603
     42           0      0.045602
     43           0      0.046564
     44           0      0.047013
     45           0      0.047479
     46           0      0.048341
     47           0      0.049145
     48           0      0.049861
     49           0      0.049887
     50           0      0.050565
     51           0      0.051178
     52           0      0.051728
     53           0      0.052217
     54           0      0.052648
     55           0      0.052924
     56           0      0.053025
     57           0      0.053354
     58           0      0.053639
     59           0      0.053885
     60           0      0.054098
     61           0      0.054283
     62           0      0.054442
     63           0      0.054581
     64           0      0.054701
     65           0      0.054805
     66           0      0.054896
     67           0      0.054975
     68           0      0.055044
     69           0      0.055103
     70           0      0.055154
     71           0      0.055198
     72           0      0.055236
     73           0      0.055269
     74           0      0.055297
     75           0      0.055321
     76           0      0.055341
     77           0      0.055357
     78           0      0.055369
     79           0      0.055377
 ###############################################################################
 ###############################################################################
 ###                                                                         ###
 ###                                                                         ###
 ###    Location: VibRot                                                     ###
 ###                                                                         ###
 ###                                                                         ###
 ###    Failed to find a state. Try decreasing STEP.                         ###
 ###                                                                         ###
 ###                                                                         ###
 ###############################################################################
 ###############################################################################
--- Stop Module: vibrot at Thu Sep 22 14:13:51 2022 /rc=_RC_NOT_CONVERGED_ ---
*** files: Li2b.VibPlt0 Li2b.VibWvs xmldump
    saved to directory /lustre03/project/6058907/nike/vibrot/Li2b
--- Module vibrot spent 5 minutes 15 seconds ---

.#######################.
.# Convergence problem #.
.#######################.

    Timing: Wall=315.62 User=314.60 System=0.10
