   This run of MOLCAS is using the pymolcas driver

                             OPE
                             OPE          NMOL  CASOP  ENMOLC A   SO
                 OPE        NMOLC        AS  OP EN  MO LC     AS  OP
                OPENM       OL CA        SO  PE NM  OL CA     SOP EN
                OP EN      MO   LC       AS  OP ENMOL  CASO   PENMOL
                OP  EN     MO   LC       AS  OP EN     MO     LC ASO
               OP   E  NMOL  C  AS       OP  EN MO     LC     AS  OP
               OP  E   NMO   LC AS        OPEN  MO     LCASOP EN   M
               O  PEN   MO  LCA  SO
            OPE   NMO   L   CAS    OP
        OPENMOL  CASOP     ENMOL   CASOPE
     OPENMOLCA   SOPENMOLCASOPEN   MOLCASOPE
    OPENMOLCAS   OP           EN   MOL    CAS
    OPENMOLCAS       OP  ENM        O     LCA
    OPENMOLCAS    OPEN  MOLCASO     P  E  NMO
    OPENMOLCAS     OP               E  N  MOL
    OPENMOLCA   SO           PENM   O  L  CAS    OPEN    MO    LCAS
    OPENMOLCA   SOP           ENM   O  L  CAS   OP  EN  MOLC  AS   O
    OPENMOLCA   SOPE           NM      O  LCA   S      OP  EN MO
    OPENMOLC                AS         O  PEN   M      OL  CA  SOPE
    OPENMO        LCASOPE  NMOL        C  ASO   P      ENMOLC     AS
    OPE     NMO      LCA  SO     P     E   NM   OL  CA SO  PE N   MO
          OPENMOLCA            SOPE   NMO        LCAS  O    P  ENMO
     OPENMOLCASOPENMOLCASOPENMOLCASOPENMOLCA
        OPENMOLCASOPENMOLCASOPENMOLCASOPE
            OPENMOLCASOPENMOLCASOPENM
               OPENMOLCASOPENMOLCA        version: 22.06
                   OPENMOLCASO
                       OPE                tag: 110-gf028b1278

 OpenMolcas is free software; you can redistribute it and/or modify it
 under the terms of the GNU Lesser General Public License version 2.1.
 OpenMolcas is distributed in the hope that it will be useful, but it
 is provided "as is" and without any express or implied warranties.
 For more details see the full text of the license in the file
 LICENSE or in <http://www.gnu.org/licenses/>.

                 Copyright (C) The OpenMolcas Authors
           For the author list and the recommended citation,
                   consult the file CONTRIBUTORS.md

           *************************************************
           * pymolcas version py2.23                       *
           *   build d53e6f8e18683222a6e02cb84ce98eb3      *
           *   (after the EMIL interpreter by V. Veryazov) *
           *************************************************

configuration info
------------------
Host name: Arpits-MacBook-Air.local (macOS)
C Compiler ID: AppleClang
C flags: -std=gnu99
Fortran Compiler ID: GNU
Fortran flags: -fno-aggressive-loop-optimizations -cpp -fdefault-integer-8 -fmax-stack-var-size=1048576
Definitions: _MOLCAS_;_I8_;_LINUX_;_DARWIN_;_DARWIN_C_SOURCE
Parallel: OFF (GA=OFF)


   --------------------------------------------------------------------------
  |
  |           Project: N2(X)
  |    Submitted from: /Users/arpitarunkumaar
  |      Scratch area: /var/folders/c3/rhj39hv90vx5ff1jpz11zd8m0000gn/T/N2(X)
  |   Save outputs to: /Users/arpitarunkumaar
  |            Molcas: /Users/arpitarunkumaar/build
  |
  | Scratch area is empty
  |
  |    MOLCAS_DRIVER = /Users/arpitarunkumaar/build/pymolcas
  |    MOLCAS_NPROCS = 1
  |    MOLCAS_SOURCE = /Users/arpitarunkumaar/OpenMolcas
  | MOLCAS_STRUCTURE = 0
  |
   --------------------------------------------------------------------------

++ ---------   Input file   ---------

&VIBROT
RoVibrational spectrum
Title = Vib-Rot spectrum for N2(x)
Atoms = 0 N  0 N
Potential
     1.1338356256484985        2.2300679695248631
   1.3228082299232482       0.86339644939930105
   1.5117808341979981       0.15083938779404424
   1.7007534384727478      -0.19211274321501359
   1.8897260427474976      -0.33166527771852705
   2.0786986470222475      -0.36378649892157483
   2.2676712512969970      -0.34226101816237453
   2.4566438555717469      -0.29688181183689671
   2.6456164598464964      -0.24392127540704059
   2.8345890641212463      -0.19197774925566607
   3.0235616683959963      -0.14533944403896418
   3.2125342726707458      -0.10594844317515159
   3.4015068769454957       -7.4501019788308920E-002
   3.5904794812202452       -5.0878113696559986E-002
   3.7794520854949951       -3.4224021370816933E-002
   3.9684246897697451       -2.3128946551343035E-002
   4.1573972940444950       -1.6027951087183575E-002
   4.3463698983192440       -1.1568461002994409E-002
   4.5353425025939940       -8.7626791910562774E-003
   4.7243151068687439       -6.9613575057527674E-003
   4.9132877111434938       -5.7612704451228229E-003
   5.1022603154182438       -4.9178116567354848E-003
   5.2912329196929928       -4.2838409485090826E-003
   5.4802055239677427       -3.7719869029179563E-003
   5.6691781282424927       -3.3322167679617539E-003
   5.8581507325172426       -2.9380243827296045E-003
   6.0471233367919925       -2.5773042936871387E-003
   6.2360959410667416       -2.2460297485007320E-003
   6.4250685453414915       -1.9439399425452257E-003
   6.6140411496162415       -1.6718345582063920E-003
   6.8030137538909914       -1.4301265817040847E-003
   6.9919863581657413       -1.2182816004861570E-003
   7.1809589624404904       -1.0347926522583201E-003
   7.3699315667152403       -8.7741296258465353E-004
   7.5589041709899902       -7.4346108265397107E-004
   7.7478767752647393       -6.3009818783829814E-004
   7.9368493795394901       -5.3453721347719693E-004
   8.1258219838142391       -4.5417817803232989E-004
   8.3147945880889900       -3.8668185902716688E-004
   8.5037671923637390       -3.2999754112817298E-004
   8.6927397966384881       -2.8236101135733409E-004
   8.8817124009132389       -2.4227537692108852E-004
   9.0706850051879879       -2.0848267924221544E-004
   9.2596576094627387       -1.7993291088067508E-004
   9.4486302137374878       -1.5575371590472513E-004
   9.6376028180122368       -1.3522223173956718E-004
   9.8265754222869877       -1.1774016601396396E-004
   10.015548026561737       -1.0281274629175186E-004
   10.204520630836488       -9.0030266914400281E-005
   10.393493235111237       -7.9053417601762703E-005
   10.582465839385986       -6.9600434586895968E-005
   10.771438443660736       -6.1437031115333415E-005
   10.960411047935485       -5.4367968225019464E-005
   11.149383652210236       -4.8230083553498841E-005
   11.338356256484985       -4.2886732609008501E-005
   11.527328860759734       -3.8223141308603778E-005
   11.716301465034485       -3.4142669783318522E-005
   11.905274069309234       -3.0563759633600968E-005
   12.094246673583985       -2.7417291254914746E-005
   12.283219277858734       -2.4644670176967337E-005
   12.472191882133483       -2.2196004529641868E-005
   12.661164486408234       -2.0028738142445948E-005
   12.850137090682983       -1.8106465897367343E-005
   13.039109694957734       -1.6398022461839901E-005
   13.228082299232483       -1.4876525458357718E-005
   13.417054903507232       -1.3518874267606406E-005
   13.606027507781983       -1.2305157704890918E-005
   13.795000112056732       -1.1218107259915087E-005
   13.983972716331483       -1.0242778153319705E-005
   14.172945320606232       -9.3660937031654608E-006
   14.361917924880981       -8.5767997615812426E-006
   14.550890529155732       -7.8650090812470815E-006
   14.739863133430481       -7.2220190619873398E-006
   14.928835737705231       -6.6403573141224114E-006
   15.117808341979980       -6.1132804615999701E-006
   15.306780946254730       -5.6350475221051969E-006
   15.495753550529479       -5.2004187101920246E-006
   15.684726154804231       -4.8049288173933741E-006
   15.873698759078980       -4.4445682687592120E-006
   16.062671363353729       -4.1156919961531457E-006
   16.251643967628478       -3.8152472550109448E-006
   16.440616571903227       -3.5404091175269057E-006
   16.629589176177980       -3.2886715993572577E-006
   16.818561780452729       -3.0578476596201657E-006
   17.007534384727478       -2.8459325108406121E-006
   17.196506989002227       -2.6511491823021064E-006
   17.385479593276976       -2.4719029566949758E-006
   17.574452197551729       -2.3068269334680736E-006
   17.763424801826478       -2.1545997754219573E-006
   17.952397406101227       -2.0141279621157080E-006
   18.141370010375976       -1.8843179731084092E-006
   18.330342614650725       -1.7642585413659617E-006
   18.519315218925477       -1.6531295265576772E-006
   18.708287823200227       -1.5501563517045725E-006
   18.897260427474976       -1.4547011298827784E-006
Plot  = 1.0 10.0 0.1
STEP = 0.0001
Grid  = 500
Range = 0.8 10.0
Vibrations = 10
Rotations  = 2 10
Orbital    = 2

-- ----------------------------------

--- Start Module: vibrot at Fri Oct 28 01:01:09 2022 ---

()()()()()()()()()()()()()()()()()()()()()()()()()()()()()()()()()()()()()()()()()()()()()()()()()()

                                              &VIBROT

                                   only a single process is used
                       available to each process: 2.0 GB of memory, 1 thread?
                                              pid: 570
()()()()()()()()()()()()()()()()()()()()()()()()()()()()()()()()()()()()()()()()()()()()()()()()()()


 Vibration-Rotation spectrum for the NN   molecule.
 Vib-Rot spectrum for N2(x)                                                      

 Rotational quantum number range   2 10
 Electronic angular momentum       2
 Vibrational quantum number range  0  9
 Mass of atom  14 N    25526.042374 au
 Mass of atom  14 N    25526.042374 au
 Reduced mass          12763.021187 au

 Statistics for numerical integration
 Number of steps           499
 Step length               0.005072
 Radial integration range  0.800000 10.000000 au
 logarithmic range        -0.223144  2.302585

 Spectroscopic constants will be computed
 Matrix elements of operators will not be computed

 Potential read from input
       R(au)     E(au)
     1.133836    2.230068
     1.322808    0.863396
     1.511781    0.150839
     1.700753   -0.192113
     1.889726   -0.331665
     2.078699   -0.363786
     2.267671   -0.342261
     2.456644   -0.296882
     2.645616   -0.243921
     2.834589   -0.191978
     3.023562   -0.145339
     3.212534   -0.105948
     3.401507   -0.074501
     3.590479   -0.050878
     3.779452   -0.034224
     3.968425   -0.023129
     4.157397   -0.016028
     4.346370   -0.011568
     4.535343   -0.008763
     4.724315   -0.006961
     4.913288   -0.005761
     5.102260   -0.004918
     5.291233   -0.004284
     5.480206   -0.003772
     5.669178   -0.003332
     5.858151   -0.002938
     6.047123   -0.002577
     6.236096   -0.002246
     6.425069   -0.001944
     6.614041   -0.001672
     6.803014   -0.001430
     6.991986   -0.001218
     7.180959   -0.001035
     7.369932   -0.000877
     7.558904   -0.000743
     7.747877   -0.000630
     7.936849   -0.000535
     8.125822   -0.000454
     8.314795   -0.000387
     8.503767   -0.000330
     8.692740   -0.000282
     8.881712   -0.000242
     9.070685   -0.000208
     9.259658   -0.000180
     9.448630   -0.000156
     9.637603   -0.000135
     9.826575   -0.000118
    10.015548   -0.000103
    10.204521   -0.000090
    10.393493   -0.000079
    10.582466   -0.000070
    10.771438   -0.000061
    10.960411   -0.000054
    11.149384   -0.000048
    11.338356   -0.000043
    11.527329   -0.000038
    11.716301   -0.000034
    11.905274   -0.000031
    12.094247   -0.000027
    12.283219   -0.000025
    12.472192   -0.000022
    12.661164   -0.000020
    12.850137   -0.000018
    13.039110   -0.000016
    13.228082   -0.000015
    13.417055   -0.000014
    13.606028   -0.000012
    13.795000   -0.000011
    13.983973   -0.000010
    14.172945   -0.000009
    14.361918   -0.000009
    14.550891   -0.000008
    14.739863   -0.000007
    14.928836   -0.000007
    15.117808   -0.000006
    15.306781   -0.000006
    15.495754   -0.000005
    15.684726   -0.000005
    15.873699   -0.000004
    16.062671   -0.000004
    16.251644   -0.000004
    16.440617   -0.000004
    16.629589   -0.000003
    16.818562   -0.000003
    17.007534   -0.000003
    17.196507   -0.000003
    17.385480   -0.000002
    17.574452   -0.000002
    17.763425   -0.000002
    17.952397   -0.000002
    18.141370   -0.000002
    18.330343   -0.000002
    18.519315   -0.000002
    18.708288   -0.000002
    18.897260   -0.000001
 A plot file of the potential will be generated
 Generating plot file:VIBPLT0 

 Scaling parameter for potential:    1.000000

 extremum points
                        R(au)         Value
 Min point         2.074950     -0.363797
 Extrapolated value at infinity    -0.000000


 Eigenstates

  Vib. q.n.   Rot. q.n.    Energy
      0           2      0.005380
      1           2      0.016006
      2           2      0.026494
      3           2      0.036839
      4           2      0.047045
      5           2      0.057118
      6           2      0.067061
      7           2      0.076874
      8           2      0.086557
      9           2      0.096112
      0           3      0.005434
      1           3      0.016060
      2           3      0.026548
      3           3      0.036892
      4           3      0.047098
      5           3      0.057170
      6           3      0.067112
      7           3      0.076925
      8           3      0.086608
      9           3      0.096162
      0           4      0.005507
      1           4      0.016132
      2           4      0.026619
      3           4      0.036963
      4           4      0.047168
      5           4      0.057240
      6           4      0.067181
      7           4      0.076993
      8           4      0.086675
      9           4      0.096229
      0           5      0.005597
      1           5      0.016222
      2           5      0.026708
      3           5      0.037051
      4           5      0.047255
      5           5      0.057326
      6           5      0.067267
      7           5      0.077078
      8           5      0.086760
      9           5      0.096312
      0           6      0.005706
      1           6      0.016329
      2           6      0.026815
      3           6      0.037157
      4           6      0.047360
      5           6      0.057430
      6           6      0.067370
      7           6      0.077180
      8           6      0.086861
      9           6      0.096412
      0           7      0.005833
      1           7      0.016455
      2           7      0.026940
      3           7      0.037281
      4           7      0.047483
      5           7      0.057552
      6           7      0.067490
      7           7      0.077299
      8           7      0.086979
      9           7      0.096529
      0           8      0.005978
      1           8      0.016599
      2           8      0.027082
      3           8      0.037422
      4           8      0.047623
      5           8      0.057690
      6           8      0.067628
      7           8      0.077435
      8           8      0.087114
      9           8      0.096663
      0           9      0.006141
      1           9      0.016760
      2           9      0.027242
      3           9      0.037581
      4           9      0.047780
      5           9      0.057847
      6           9      0.067782
      7           9      0.077588
      8           9      0.087265
      9           9      0.096813
      0          10      0.006322
      1          10      0.016940
      2          10      0.027420
      3          10      0.037757
      4          10      0.047955
      5          10      0.058020
      6          10      0.067954
      7          10      0.077759
      8          10      0.087434
      9          10      0.096980

     Rotational constants for vibrational quantum number  0
     B= 0.198869E+01 cm-1     D= 0.572267E-05 cm-1
     Observed and computed term values (cm-1)
       3        0.119319E+02        0.119319E+02       -0.542467E-05
       4        0.278405E+02        0.278405E+02       -0.118781E-05
       5        0.477252E+02        0.477252E+02       -0.129848E-05
       6        0.715854E+02        0.715854E+02        0.999253E-06
       7        0.994202E+02        0.994202E+02       -0.111691E-05
       8        0.131229E+03        0.131229E+03        0.555493E-05
       9        0.167010E+03        0.167010E+03       -0.368027E-05
      10        0.206762E+03        0.206762E+03        0.410871E-06

     Rotational constants for vibrational quantum number  1
     B= 0.197199E+01 cm-1     D= 0.575965E-05 cm-1
     Observed and computed term values (cm-1)
       3        0.118317E+02        0.118317E+02        0.118634E-06
       4        0.276067E+02        0.276067E+02        0.202639E-06
       5        0.473243E+02        0.473243E+02        0.211637E-06
       6        0.709840E+02        0.709840E+02        0.123948E-06
       7        0.985849E+02        0.985849E+02       -0.440776E-07
       8        0.130126E+03        0.130126E+03       -0.215113E-06
       9        0.165606E+03        0.165606E+03       -0.224008E-06
      10        0.205024E+03        0.205024E+03        0.212769E-06

     Rotational constants for vibrational quantum number  2
     B= 0.195503E+01 cm-1     D= 0.580934E-05 cm-1
     Observed and computed term values (cm-1)
       3        0.117300E+02        0.117300E+02        0.115569E-06
       4        0.273693E+02        0.273693E+02        0.197453E-06
       5        0.469174E+02        0.469174E+02        0.206271E-06
       6        0.703736E+02        0.703736E+02        0.120855E-06
       7        0.977371E+02        0.977371E+02       -0.428848E-07
       8        0.129007E+03        0.129007E+03       -0.209670E-06
       9        0.164182E+03        0.164182E+03       -0.218450E-06
      10        0.203260E+03        0.203260E+03        0.207436E-06

     Rotational constants for vibrational quantum number  3
     B= 0.193792E+01 cm-1     D= 0.583394E-05 cm-1
     Observed and computed term values (cm-1)
       3        0.116273E+02        0.116273E+02        0.111571E-06
       4        0.271298E+02        0.271298E+02        0.190632E-06
       5        0.465068E+02        0.465068E+02        0.199168E-06
       6        0.697577E+02        0.697577E+02        0.116726E-06
       7        0.968816E+02        0.968816E+02       -0.413733E-07
       8        0.127878E+03        0.127878E+03       -0.202456E-06
       9        0.162744E+03        0.162744E+03       -0.211000E-06
      10        0.201481E+03        0.201481E+03        0.200331E-06

     Rotational constants for vibrational quantum number  4
     B= 0.192075E+01 cm-1     D= 0.583593E-05 cm-1
     Observed and computed term values (cm-1)
       3        0.115243E+02        0.115243E+02       -0.638245E-07
       4        0.268894E+02        0.268894E+02       -0.224587E-06
       5        0.460947E+02        0.460947E+02       -0.530355E-06
       6        0.691396E+02        0.691396E+02       -0.102026E-05
       7        0.960231E+02        0.960231E+02       -0.171048E-05
       8        0.126744E+03        0.126744E+03       -0.257743E-05
       9        0.161302E+03        0.161302E+03        0.888028E-05
      10        0.199695E+03        0.199695E+03       -0.420504E-05

     Rotational constants for vibrational quantum number  5
     B= 0.190346E+01 cm-1     D= 0.583440E-05 cm-1
     Observed and computed term values (cm-1)
       3        0.114206E+02        0.114206E+02        0.375138E-07
       4        0.266473E+02        0.266473E+02        0.641002E-07
       5        0.456797E+02        0.456797E+02        0.669791E-07
       6        0.685171E+02        0.685171E+02        0.392735E-07
       7        0.951585E+02        0.951585E+02       -0.138989E-07
       8        0.125603E+03        0.125603E+03       -0.680919E-07
       9        0.159850E+03        0.159850E+03       -0.709897E-07
      10        0.197897E+03        0.197897E+03        0.673882E-07

     Rotational constants for vibrational quantum number  6
     B= 0.188591E+01 cm-1     D= 0.582885E-05 cm-1
     Observed and computed term values (cm-1)
       3        0.113152E+02        0.113152E+02        0.229383E-07
       4        0.264016E+02        0.264016E+02        0.391715E-07
       5        0.452584E+02        0.452584E+02        0.409083E-07
       6        0.678851E+02        0.678851E+02        0.239559E-07
       7        0.942808E+02        0.942808E+02       -0.852739E-08
       8        0.124444E+03        0.124444E+03       -0.415733E-07
       9        0.158375E+03        0.158375E+03       -0.432986E-07
      10        0.196071E+03        0.196071E+03        0.411259E-07

     Rotational constants for vibrational quantum number  7
     B= 0.186814E+01 cm-1     D= 0.582466E-05 cm-1
     Observed and computed term values (cm-1)
       3        0.112086E+02        0.112086E+02        0.202034E-07
       4        0.261528E+02        0.261528E+02        0.344864E-07
       5        0.448320E+02        0.448320E+02        0.359807E-07
       6        0.672455E+02        0.672455E+02        0.210228E-07
       7        0.933924E+02        0.933924E+02       -0.755603E-08
       8        0.123272E+03        0.123272E+03       -0.365560E-07
       9        0.156883E+03        0.156883E+03       -0.379739E-07
      10        0.194224E+03        0.194224E+03        0.361141E-07

     Rotational constants for vibrational quantum number  8
     B= 0.185022E+01 cm-1     D= 0.582634E-05 cm-1
     Observed and computed term values (cm-1)
       3        0.111011E+02        0.111011E+02        0.329240E-07
       4        0.259019E+02        0.259019E+02        0.562369E-07
       5        0.444018E+02        0.444018E+02        0.587106E-07
       6        0.666002E+02        0.666002E+02        0.343666E-07
       7        0.924962E+02        0.924962E+02       -0.122616E-07
       8        0.122089E+03        0.122089E+03       -0.596706E-07
       9        0.155377E+03        0.155377E+03       -0.620899E-07
      10        0.192359E+03        0.192359E+03        0.589980E-07

     Rotational constants for vibrational quantum number  9
     B= 0.183221E+01 cm-1     D= 0.582996E-05 cm-1
     Observed and computed term values (cm-1)
       3        0.109931E+02        0.109931E+02        0.306488E-07
       4        0.256498E+02        0.256498E+02        0.523424E-07
       5        0.439697E+02        0.439697E+02        0.546248E-07
       6        0.659521E+02        0.659521E+02        0.319369E-07
       7        0.915960E+02        0.915960E+02       -0.114368E-07
       8        0.120901E+03        0.120901E+03       -0.555083E-07
       9        0.153865E+03        0.153865E+03       -0.577023E-07
      10        0.190487E+03        0.190487E+03        0.548554E-07

     Rotational constants B(nv) and D(nv) in cm-1
       1        0.198869E+01        0.572267E-05
       2        0.197199E+01        0.575965E-05
       3        0.195503E+01        0.580934E-05
       4        0.193792E+01        0.583394E-05
       5        0.192075E+01        0.583593E-05
       6        0.190346E+01        0.583440E-05
       7        0.188591E+01        0.582885E-05
       8        0.186814E+01        0.582466E-05
       9        0.185022E+01        0.582634E-05
      10        0.183221E+01        0.582996E-05

     Spectroscopic constants De= 0.576535E-05 cm-1  Betae= 0.904395E-08 cm-1
     Observed and computed D values
       0        0.572267E-05        0.576988E-05       -0.472059E-07
       1        0.575965E-05        0.577892E-05       -0.192740E-07
       2        0.580934E-05        0.578796E-05        0.213734E-07
       3        0.583394E-05        0.579701E-05        0.369345E-07
       4        0.583593E-05        0.580605E-05        0.298827E-07
       5        0.583440E-05        0.581510E-05        0.193022E-07
       6        0.582885E-05        0.582414E-05        0.471126E-08
       7        0.582466E-05        0.583318E-05       -0.852339E-08
       8        0.582634E-05        0.584223E-05       -0.158851E-07
       9        0.582996E-05        0.585127E-05       -0.213157E-07

     Spectroscopic constants Be,Alphae and Gammae
     Be= 0.199698E+01 cm-1    Alphae= 0.165622E-01 cm-1    Gammae=-0.822565E-04
     Observed and computed B values
       0        0.198869E+01        0.198868E+01        0.128070E-04
       1        0.197199E+01        0.197195E+01        0.357731E-04
       2        0.195503E+01        0.195506E+01       -0.266875E-04
       3        0.193792E+01        0.193800E+01       -0.789267E-04
       4        0.192075E+01        0.192078E+01       -0.281868E-04
       5        0.190346E+01        0.190340E+01        0.640565E-04
       6        0.188591E+01        0.188585E+01        0.580814E-04
       7        0.186814E+01        0.186813E+01        0.492164E-05
       8        0.185022E+01        0.185026E+01       -0.404555E-04
       9        0.183221E+01        0.183221E+01       -0.138328E-05

     Vibrational constants we  = 0.236610E+04 cm-1
                           wexe=-0.163791E+02 cm-1
                           weye= 0.110797E+00 cm-1
     Observed and computed band origins
       0        0.118071E+04        0.117897E+04        0.174312E+01
       1        0.351290E+04        0.351267E+04        0.226141E+00
       2        0.581480E+04        0.581461E+04        0.191851E+00
       3        0.808525E+04        0.808545E+04       -0.207173E+00
       4        0.103252E+05        0.103259E+05       -0.643489E+00
       5        0.125360E+05        0.125365E+05       -0.516506E+00
       6        0.147181E+05        0.147181E+05        0.571342E-01
       7        0.168718E+05        0.168712E+05        0.642372E+00
       8        0.189971E+05        0.189965E+05        0.650283E+00
       9        0.210941E+05        0.210947E+05       -0.625830E+00


     Spectroscopic constants for N N 


     Range of J-values used in fit  2 10
     Range of v-values used in fit  0  9



     Re(a)                 1.0980
     De(ev)                9.8994
     D0(ev)                9.7530
     we(cm-1)        0.236610E+04
     wexe(cm-1)     -0.163791E+02
     weye(cm-1)      0.110797E+00
     Be(cm-1)        0.199698E+01
     Alphae(cm-1)    0.165622E-01
     Gammae(cm-1)   -0.822565E-04
     Dele(cm-1)      0.576535E-05
     Betae(cm-1)     0.904395E-08


     Max deviation in term values is  0.12E+02 cm(-1)


     Term values(observed and computed) in cm(-1)

 J-value         2                     3                     4                     5                     6

 v-value
     0   1180.71   1190.90     1192.64   1202.83     1208.55   1218.74     1228.44   1238.62     1252.30   1262.48
     1   3512.90   3524.50     3524.73   3536.33     3540.50   3552.11     3560.22   3571.82     3583.88   3595.48
     2   5814.80   5826.34     5826.53   5838.07     5842.17   5853.71     5861.72   5873.26     5885.18   5896.71
     3   8085.25   8097.08     8096.87   8108.71     8112.38   8124.21     8131.75   8143.59     8155.00   8166.84
     4  10325.22  10337.39    10336.75  10348.92    10352.11  10364.28    10371.32  10383.48    10394.36  10406.53
     5  12536.00  12547.93    12547.42  12559.35    12562.64  12574.58    12581.68  12593.61    12604.51  12616.44
     6  14718.11  14729.37    14729.43  14740.69    14744.51  14755.77    14763.37  14774.63    14786.00  14797.25
     7  16871.81  16882.37    16883.01  16893.58    16897.96  16908.52    16916.64  16927.20    16939.05  16949.61
     8  18997.15  19007.60    19008.25  19018.70    19023.05  19033.50    19041.55  19052.00    19063.75  19074.20
     9  21094.10  21105.72    21105.09  21116.71    21119.75  21131.37    21138.07  21149.68    21160.05  21171.67

 J-value         7                     8                     9                    10

 v-value
     0   1280.13   1290.32     1311.94   1322.12     1347.72   1357.90     1387.47   1397.65
     1   3611.48   3623.08     3643.02   3654.62     3678.50   3690.10     3717.92   3729.51
     2   5912.54   5924.08     5943.81   5955.34     5978.98   5990.52     6018.06   6029.60
     3   8182.13   8193.96     8213.12   8224.96     8247.99   8259.83     8286.73   8298.56
     4  10421.25  10433.41    10451.97  10464.13    10486.53  10498.69    10524.92  10537.08
     5  12631.15  12643.08    12661.60  12673.53    12695.85  12707.77    12733.89  12745.82
     6  14812.39  14823.65    14842.56  14853.81    14876.49  14887.74    14914.18  14925.43
     7  16965.20  16975.76    16995.08  17005.64    17028.69  17039.25    17066.03  17076.59
     8  19089.64  19100.09    19119.24  19129.69    19152.52  19162.97    19189.51  19199.95
     9  21185.69  21197.31    21215.00  21226.61    21247.96  21259.58    21284.58  21296.20


     observed G-values in cm(-1)

     v      G(v)     deltaG(v+1/2)
     0    1180.71
                       2332.18
     1    3512.90
                       2301.91
     2    5814.80
                       2270.44
     3    8085.25
                       2239.98
     4   10325.22
                       2210.77
     5   12536.00
                       2182.12
     6   14718.11
                       2153.69
     7   16871.81
                       2125.34
     8   18997.15
                       2096.95
     9   21094.10
--- Stop Module: vibrot at Fri Oct 28 01:01:09 2022 /rc=_RC_ALL_IS_WELL_ ---
*** files: N2(X).VibPlt0 N2(X).VibWvs xmldump
    saved to directory /Users/arpitarunkumaar

.##################.
.# Happy landing! #.
.##################.

    Timing: Wall=0.07 User=0.05 System=0.01
