   This run of MOLCAS is using the pymolcas driver

                             OPE
                             OPE          NMOL  CASOP  ENMOLC A   SO
                 OPE        NMOLC        AS  OP EN  MO LC     AS  OP
                OPENM       OL CA        SO  PE NM  OL CA     SOP EN
                OP EN      MO   LC       AS  OP ENMOL  CASO   PENMOL
                OP  EN     MO   LC       AS  OP EN     MO     LC ASO
               OP   E  NMOL  C  AS       OP  EN MO     LC     AS  OP
               OP  E   NMO   LC AS        OPEN  MO     LCASOP EN   M
               O  PEN   MO  LCA  SO
            OPE   NMO   L   CAS    OP
        OPENMOL  CASOP     ENMOL   CASOPE
     OPENMOLCA   SOPENMOLCASOPEN   MOLCASOPE
    OPENMOLCAS   OP           EN   MOL    CAS
    OPENMOLCAS       OP  ENM        O     LCA
    OPENMOLCAS    OPEN  MOLCASO     P  E  NMO
    OPENMOLCAS     OP               E  N  MOL
    OPENMOLCA   SO           PENM   O  L  CAS    OPEN    MO    LCAS
    OPENMOLCA   SOP           ENM   O  L  CAS   OP  EN  MOLC  AS   O
    OPENMOLCA   SOPE           NM      O  LCA   S      OP  EN MO
    OPENMOLC                AS         O  PEN   M      OL  CA  SOPE
    OPENMO        LCASOPE  NMOL        C  ASO   P      ENMOLC     AS
    OPE     NMO      LCA  SO     P     E   NM   OL  CA SO  PE N   MO
          OPENMOLCA            SOPE   NMO        LCAS  O    P  ENMO
     OPENMOLCASOPENMOLCASOPENMOLCASOPENMOLCA
        OPENMOLCASOPENMOLCASOPENMOLCASOPE
            OPENMOLCASOPENMOLCASOPENM
               OPENMOLCASOPENMOLCA        version: v20.10 ?
                   OPENMOLCASO
                       OPE                tag:

 OpenMolcas is free software; you can redistribute it and/or modify it
 under the terms of the GNU Lesser General Public License version 2.1.
 OpenMolcas is distributed in the hope that it will be useful, but it
 is provided "as is" and without any express or implied warranties.
 For more details see the full text of the license in the file
 LICENSE or in <http://www.gnu.org/licenses/>.

                 Copyright (C) The OpenMolcas Authors
           For the author list and the recommended citation,
                   consult the file CONTRIBUTORS.md

           *************************************************
           * pymolcas version py2.13                       *
           *   build df7b0ad5c844738454f9b0a3ade4831c      *
           *   (after the EMIL interpreter by V. Veryazov) *
           *************************************************

configuration info
------------------
Host name: build-node.computecanada.ca (Linux)
C Compiler ID: Intel
C flags: -O2 -xCore-AVX512 -ftz -fp-speculation=safe -fp-model source -std=gnu99 -qopenmp
Fortran Compiler ID: Intel
Fortran flags: -O2 -xCore-AVX512 -ftz -fp-speculation=safe -fp-model source  -fpp -i8 -r8 -heap-arrays -qopenmp
Definitions: _MOLCAS_;_I8_;_LINUX_;_GA_;_MOLCAS_MPP_;SCALAPACK;_MKL_;_FDE_
Parallel: ON (GA=ON)


   -------------------------------------------------------------------------------------------------------------------------------------
  |
  |           Project: N2_X
  |    Submitted from: /home/nike/LEVEL_arpit/LEVEL_2022/test_suite/2022_N2_X-state/OpenMOLCAS
  |      Scratch area: /tmp/N2_X
  |   Save outputs to: /home/nike/LEVEL_arpit/LEVEL_2022/test_suite/2022_N2_X-state/OpenMOLCAS
  |            Molcas: /cvmfs/soft.computecanada.ca/easybuild/software/2020/avx512/MPI/intel2020/openmpi4/openmolcas/20.10
  |
  | Scratch area is empty
  |
  |    MOLCAS_DRIVER = /cvmfs/soft.computecanada.ca/easybuild/software/2020/avx512/MPI/intel2020/openmpi4/openmolcas/20.10/sbin/pymolcas
  |    MOLCAS_NPROCS = 1
  |    MOLCAS_SOURCE = /cvmfs/soft.computecanada.ca/easybuild/software/2020/avx512/MPI/intel2020/openmpi4/openmolcas/20.10
  | MOLCAS_STRUCTURE = 0
  |
   -------------------------------------------------------------------------------------------------------------------------------------

++ ---------   Input file   ---------

&VIBROT
RoVibrational spectrum
NOSPectroscopic
Title = Vib-Rot spectrum for N2(X)
Atoms = 0 N  0 N
Potential
   1.1338356256484985        2.2300679695248631
   1.3228082299232482        0.86339644939930105
   1.5117808341979981        0.15083938779404424
   1.7007534384727478       -0.19211274321501359
   1.8897260427474976       -0.33166527771852705
   2.0786986470222475       -0.36378649892157483
   2.2676712512969970       -0.34226101816237453
   2.4566438555717469       -0.29688181183689671
   2.6456164598464964       -0.24392127540704059
   2.8345890641212463       -0.19197774925566607
   3.0235616683959963       -0.14533944403896418
   3.2125342726707458       -0.10594844317515159
   3.4015068769454957       -7.4501019788308920E-002
   3.5904794812202452       -5.0878113696559986E-002
   3.7794520854949951       -3.4224021370816933E-002
   3.9684246897697451       -2.3128946551343035E-002
   4.1573972940444950       -1.6027951087183575E-002
   4.3463698983192440       -1.1568461002994409E-002
   4.5353425025939940       -8.7626791910562774E-003
   4.7243151068687439       -6.9613575057527674E-003
   4.9132877111434938       -5.7612704451228229E-003
   5.1022603154182438       -4.9178116567354848E-003
   5.2912329196929928       -4.2838409485090826E-003
   5.4802055239677427       -3.7719869029179563E-003
   5.6691781282424927       -3.3322167679617539E-003
   5.8581507325172426       -2.9380243827296045E-003
   6.0471233367919925       -2.5773042936871387E-003
   6.2360959410667416       -2.2460297485007320E-003
   6.4250685453414915       -1.9439399425452257E-003
   6.6140411496162415       -1.6718345582063920E-003
   6.8030137538909914       -1.4301265817040847E-003
   6.9919863581657413       -1.2182816004861570E-003
   7.1809589624404904       -1.0347926522583201E-003
   7.3699315667152403       -8.7741296258465353E-004
   7.5589041709899902       -7.4346108265397107E-004
   7.7478767752647393       -6.3009818783829814E-004
   7.9368493795394901       -5.3453721347719693E-004
   8.1258219838142391       -4.5417817803232989E-004
   8.3147945880889900       -3.8668185902716688E-004
   8.5037671923637390       -3.2999754112817298E-004
   8.6927397966384881       -2.8236101135733409E-004
   8.8817124009132389       -2.4227537692108852E-004
   9.0706850051879879       -2.0848267924221544E-004
   9.2596576094627387       -1.7993291088067508E-004
   9.4486302137374878       -1.5575371590472513E-004
   9.6376028180122368       -1.3522223173956718E-004
   9.8265754222869877       -1.1774016601396396E-004
   10.015548026561737       -1.0281274629175186E-004
   10.204520630836488       -9.0030266914400281E-005
   10.393493235111237       -7.9053417601762703E-005
   10.582465839385986       -6.9600434586895968E-005
   10.771438443660736       -6.1437031115333415E-005
   10.960411047935485       -5.4367968225019464E-005
   11.149383652210236       -4.8230083553498841E-005
   11.338356256484985       -4.2886732609008501E-005
   11.527328860759734       -3.8223141308603778E-005
   11.716301465034485       -3.4142669783318522E-005
   11.905274069309234       -3.0563759633600968E-005
   12.094246673583985       -2.7417291254914746E-005
   12.283219277858734       -2.4644670176967337E-005
   12.472191882133483       -2.2196004529641868E-005
   12.661164486408234       -2.0028738142445948E-005
   12.850137090682983       -1.8106465897367343E-005
   13.039109694957734       -1.6398022461839901E-005
   13.228082299232483       -1.4876525458357718E-005
   13.417054903507232       -1.3518874267606406E-005
   13.606027507781983       -1.2305157704890918E-005
   13.795000112056732       -1.1218107259915087E-005
   13.983972716331483       -1.0242778153319705E-005
   14.172945320606232       -9.3660937031654608E-006
   14.361917924880981       -8.5767997615812426E-006
   14.550890529155732       -7.8650090812470815E-006
   14.739863133430481       -7.2220190619873398E-006
   14.928835737705231       -6.6403573141224114E-006
   15.117808341979980       -6.1132804615999701E-006
   15.306780946254730       -5.6350475221051969E-006
   15.495753550529479       -5.2004187101920246E-006
   15.684726154804231       -4.8049288173933741E-006
   15.873698759078980       -4.4445682687592120E-006
   16.062671363353729       -4.1156919961531457E-006
   16.251643967628478       -3.8152472550109448E-006
   16.440616571903227       -3.5404091175269057E-006
   16.629589176177980       -3.2886715993572577E-006
   16.818561780452729       -3.0578476596201657E-006
   17.007534384727478       -2.8459325108406121E-006
   17.196506989002227       -2.6511491823021064E-006
   17.385479593276976       -2.4719029566949758E-006
   17.574452197551729       -2.3068269334680736E-006
   17.763424801826478       -2.1545997754219573E-006
   17.952397406101227       -2.0141279621157080E-006
   18.141370010375976       -1.8843179731084092E-006
   18.330342614650725       -1.7642585413659617E-006
   18.519315218925477       -1.6531295265576772E-006
   18.708287823200227       -1.5501563517045725E-006
   18.897260427474976       -1.4547011298827784E-006
Scale
Step = 0.0000001
Grid  = 500
Range = 0.4 20
Vibrations = 200
Rotations  = 0 0
Orbital    = 0

-- ----------------------------------

--- Start Module: vibrot at Fri Oct 28 12:04:04 2022 ---
 
()()()()()()()()()()()()()()()()()()()()()()()()()()()()()()()()()()()()()()()()()()()()()()()()()()

                                              &VIBROT

                       only a single process is used, running in SERIAL mode
                      available to each process: 2.0 GB of memory, 40 threads
                                            pid: 173175
()()()()()()()()()()()()()()()()()()()()()()()()()()()()()()()()()()()()()()()()()()()()()()()()()()
 

 Vibration-Rotation spectrum for the NN   molecule.
 Vib-Rot spectrum for N2(X)                                                     
  

 Rotational quantum number range   0  0
 Electronic angular momentum       0
 Vibrational quantum number range  0199
 Mass of atom  14 N    0.255260D+05 au
 Mass of atom  14 N    0.255260D+05 au
 Reduced mass          0.127630D+05 au

 Statistics for numerical integration
 Number of steps           499
 Step length               0.007855
 Radial integration range  0.400000 20.000000 au
 logarithmic range        -0.916291  2.995732

 Spectroscopic constants will not be computed
 Matrix elements of operators will not be computed

 Potential read from input
       R(au)     E(au)
     1.133836    2.230068
     1.322808    0.863396
     1.511781    0.150839
     1.700753   -0.192113
     1.889726   -0.331665
     2.078699   -0.363786
     2.267671   -0.342261
     2.456644   -0.296882
     2.645616   -0.243921
     2.834589   -0.191978
     3.023562   -0.145339
     3.212534   -0.105948
     3.401507   -0.074501
     3.590479   -0.050878
     3.779452   -0.034224
     3.968425   -0.023129
     4.157397   -0.016028
     4.346370   -0.011568
     4.535343   -0.008763
     4.724315   -0.006961
     4.913288   -0.005761
     5.102260   -0.004918
     5.291233   -0.004284
     5.480206   -0.003772
     5.669178   -0.003332
     5.858151   -0.002938
     6.047123   -0.002577
     6.236096   -0.002246
     6.425069   -0.001944
     6.614041   -0.001672
     6.803014   -0.001430
     6.991986   -0.001218
     7.180959   -0.001035
     7.369932   -0.000877
     7.558904   -0.000743
     7.747877   -0.000630
     7.936849   -0.000535
     8.125822   -0.000454
     8.314795   -0.000387
     8.503767   -0.000330
     8.692740   -0.000282
     8.881712   -0.000242
     9.070685   -0.000208
     9.259658   -0.000180
     9.448630   -0.000156
     9.637603   -0.000135
     9.826575   -0.000118
    10.015548   -0.000103
    10.204521   -0.000090
    10.393493   -0.000079
    10.582466   -0.000070
    10.771438   -0.000061
    10.960411   -0.000054
    11.149384   -0.000048
    11.338356   -0.000043
    11.527329   -0.000038
    11.716301   -0.000034
    11.905274   -0.000031
    12.094247   -0.000027
    12.283219   -0.000025
    12.472192   -0.000022
    12.661164   -0.000020
    12.850137   -0.000018
    13.039110   -0.000016
    13.228082   -0.000015
    13.417055   -0.000014
    13.606028   -0.000012
    13.795000   -0.000011
    13.983973   -0.000010
    14.172945   -0.000009
    14.361918   -0.000009
    14.550891   -0.000008
    14.739863   -0.000007
    14.928836   -0.000007
    15.117808   -0.000006
    15.306781   -0.000006
    15.495754   -0.000005
    15.684726   -0.000005
    15.873699   -0.000004
    16.062671   -0.000004
    16.251644   -0.000004
    16.440617   -0.000004
    16.629589   -0.000003
    16.818562   -0.000003
    17.007534   -0.000003
    17.196507   -0.000003
    17.385480   -0.000002
    17.574452   -0.000002
    17.763425   -0.000002
    17.952397   -0.000002
    18.141370   -0.000002
    18.330343   -0.000002
    18.519315   -0.000002
    18.708288   -0.000002
    18.897260   -0.000001
 Generating plot file:VIBPLT0 

 Scaling parameter for potential:    0.274888

 extremum points
                        R(au)         Value
 Min point            2.074950     -0.363797
 Extrapolated value at infinity    -0.000000


 Eigenstates

  Vib. q.n.   Rot. q.n.    Energy
      0           0      0.005362
      1           0      0.015988
      2           0      0.026475
      3           0      0.036819
      4           0      0.047022
      5           0      0.057091
      6           0      0.067028
      7           0      0.076833
      8           0      0.086507
      9           0      0.096050
     10           0      0.105460
     11           0      0.114738
     12           0      0.123881
     13           0      0.132891
     14           0      0.141764
     15           0      0.150501
     16           0      0.159101
     17           0      0.167563
     18           0      0.175887
     19           0      0.184071
     20           0      0.192115
     21           0      0.200018
     22           0      0.207778
     23           0      0.215395
     24           0      0.222868
     25           0      0.230195
     26           0      0.237375
     27           0      0.244406
     28           0      0.251287
     29           0      0.258015
     30           0      0.264589
     31           0      0.271006
     32           0      0.277262
     33           0      0.283356
     34           0      0.289283
     35           0      0.295038
     36           0      0.300618
     37           0      0.306016
     38           0      0.311226
     39           0      0.316242
     40           0      0.321055
     41           0      0.325656
     42           0      0.330035
     43           0      0.334180
     44           0      0.338078
     45           0      0.341714
     46           0      0.345072
     47           0      0.348133
     48           0      0.350880
     49           0      0.353294
     50           0      0.355359
     51           0      0.357067
     52           0      0.358430
     53           0      0.359488
     54           0      0.360318
     55           0      0.360999
     56           0      0.361584
     57           0      0.362094
     58           0      0.362538
     59           0      0.362915
     60           0      0.363225
     61           0      0.363464
     62           0      0.363634
     63           0      0.363737
     64           0      0.363785     Warning:function value at Rmax is    0.026489
 ###############################################################################
 ###############################################################################
 ###                                                                         ###
 ###                                                                         ###
 ###    Location: VibRot                                                     ###
 ###                                                                         ###
 ###                                                                         ###
 ###    Failed to find a state. Try decreasing STEP.                         ###
 ###                                                                         ###
 ###                                                                         ###
 ###############################################################################
 ###############################################################################
--- Stop Module: vibrot at Fri Oct 28 12:04:08 2022 /rc=_RC_NOT_CONVERGED_ ---
*** files: N2_X.VibPlt0 N2_X.VibWvs xmldump
    saved to directory /home/nike/LEVEL_arpit/LEVEL_2022/test_suite/2022_N2_X-state/OpenMOLCAS
--- Module vibrot spent 3 seconds ---

.#######################.
.# Convergence problem #.
.#######################.

    Timing: Wall=3.42 User=3.30 System=0.05
