   This run of MOLCAS is using the pymolcas driver

                             OPE
                             OPE          NMOL  CASOP  ENMOLC A   SO
                 OPE        NMOLC        AS  OP EN  MO LC     AS  OP
                OPENM       OL CA        SO  PE NM  OL CA     SOP EN
                OP EN      MO   LC       AS  OP ENMOL  CASO   PENMOL
                OP  EN     MO   LC       AS  OP EN     MO     LC ASO
               OP   E  NMOL  C  AS       OP  EN MO     LC     AS  OP
               OP  E   NMO   LC AS        OPEN  MO     LCASOP EN   M
               O  PEN   MO  LCA  SO
            OPE   NMO   L   CAS    OP
        OPENMOL  CASOP     ENMOL   CASOPE
     OPENMOLCA   SOPENMOLCASOPEN   MOLCASOPE
    OPENMOLCAS   OP           EN   MOL    CAS
    OPENMOLCAS       OP  ENM        O     LCA
    OPENMOLCAS    OPEN  MOLCASO     P  E  NMO
    OPENMOLCAS     OP               E  N  MOL
    OPENMOLCA   SO           PENM   O  L  CAS    OPEN    MO    LCAS
    OPENMOLCA   SOP           ENM   O  L  CAS   OP  EN  MOLC  AS   O
    OPENMOLCA   SOPE           NM      O  LCA   S      OP  EN MO
    OPENMOLC                AS         O  PEN   M      OL  CA  SOPE
    OPENMO        LCASOPE  NMOL        C  ASO   P      ENMOLC     AS
    OPE     NMO      LCA  SO     P     E   NM   OL  CA SO  PE N   MO
          OPENMOLCA            SOPE   NMO        LCAS  O    P  ENMO
     OPENMOLCASOPENMOLCASOPENMOLCASOPENMOLCA
        OPENMOLCASOPENMOLCASOPENMOLCASOPE
            OPENMOLCASOPENMOLCASOPENM
               OPENMOLCASOPENMOLCA        version: v20.10 ?
                   OPENMOLCASO
                       OPE                tag:

 OpenMolcas is free software; you can redistribute it and/or modify it
 under the terms of the GNU Lesser General Public License version 2.1.
 OpenMolcas is distributed in the hope that it will be useful, but it
 is provided "as is" and without any express or implied warranties.
 For more details see the full text of the license in the file
 LICENSE or in <http://www.gnu.org/licenses/>.

                 Copyright (C) The OpenMolcas Authors
           For the author list and the recommended citation,
                   consult the file CONTRIBUTORS.md

           *************************************************
           * pymolcas version py2.13                       *
           *   build df7b0ad5c844738454f9b0a3ade4831c      *
           *   (after the EMIL interpreter by V. Veryazov) *
           *************************************************

configuration info
------------------
Host name: build-node.computecanada.ca (Linux)
C Compiler ID: Intel
C flags: -O2 -xCore-AVX512 -ftz -fp-speculation=safe -fp-model source -std=gnu99 -qopenmp
Fortran Compiler ID: Intel
Fortran flags: -O2 -xCore-AVX512 -ftz -fp-speculation=safe -fp-model source  -fpp -i8 -r8 -heap-arrays -qopenmp
Definitions: _MOLCAS_;_I8_;_LINUX_;_GA_;_MOLCAS_MPP_;SCALAPACK;_MKL_;_FDE_
Parallel: ON (GA=ON)


   -------------------------------------------------------------------------------------------------------------------------------------
  |
  |           Project: Li2_X
  |    Submitted from: /home/nike/LEVEL_arpit/LEVEL_2022/test_suite/vibrot/Li2
  |      Scratch area: /tmp/Li2_X
  |   Save outputs to: /home/nike/LEVEL_arpit/LEVEL_2022/test_suite/vibrot/Li2
  |            Molcas: /cvmfs/soft.computecanada.ca/easybuild/software/2020/avx512/MPI/intel2020/openmpi4/openmolcas/20.10
  |
  | Scratch area is NOT empty
  |
  |    MOLCAS_DRIVER = /cvmfs/soft.computecanada.ca/easybuild/software/2020/avx512/MPI/intel2020/openmpi4/openmolcas/20.10/sbin/pymolcas
  |    MOLCAS_NPROCS = 1
  |    MOLCAS_SOURCE = /cvmfs/soft.computecanada.ca/easybuild/software/2020/avx512/MPI/intel2020/openmpi4/openmolcas/20.10
  | MOLCAS_STRUCTURE = 0
  |
   -------------------------------------------------------------------------------------------------------------------------------------

++ ---------   Input file   ---------

&VIBROT
RoVibrational spectrum
NOSPectroscopic
Title = Vib-Rot spectrum for Li2(X)
Atoms = 6 Li  6 Li
Potential
   1.5117808341979981       0.58632909429529889
   1.5590239852666854       0.54361011187657582
   1.6062671363353729       0.50448673842497327
   1.6535102874040604       0.46856435313295014
   1.7007534384727478       0.43550173605212267
   1.7479965895414353       0.40500258891215890
   1.7952397406101226       0.37680858857916277
   1.8424828916788101       0.35069366418432685
   1.8897260427474976       0.32645925735452597
   1.9369691938161848       0.30393037694766922
   1.9842123448848725       0.28295229947782191
   2.0314554959535598       0.26338779708163096
   2.0786986470222475       0.24511479867584643
   2.1259417980909348       0.22802440854115352
   2.1731849491596220       0.21201922116986999
   2.2204281002283097       0.19701188275382178
   2.2676712512969970       0.18292385885698698
   2.3149144023656847       0.16968437514011492
   2.3621575534343719       0.15722950388245244
   2.4094007045030592       0.14550137378661374
   2.4566438555717469       0.13444748439393994
   2.5038870066404342       0.12402010956362625
   2.5511301577091219       0.11417577702365583
   2.5983733087778091       0.10487481309788943
   2.6456164598464964        9.6080943440196312E-002
   2.6928596109151841        8.7760942034367656E-002
   2.7401027619838714        7.9884321903054917E-002
   2.7873459130525591        7.2423061955426027E-002
   2.8345890641212463        6.5351365227296968E-002
   2.8818322151899336        5.8645444458084880E-002
   2.9290753662586213        5.2283331529671344E-002
   2.9763185173273086        4.6244707781778242E-002
   3.0235616683959963        4.0510752632614312E-002
   3.0708048194646835        3.5064008284680627E-002
   3.1180479705333708        2.9888258594118942E-002
   3.1652911216020585        2.4968420436733280E-002
   3.2125342726707458        2.0290446121271226E-002
   3.2597774237394335        1.5841235587065017E-002
   3.3070205748081207        1.1608557283253104E-002
   3.3542637258768080        7.5809767646628674E-003
   3.4015068769454957        3.7477921583758578E-003
   3.4487500280141830        9.8975757854240484E-005
   3.4959931790828707       -3.3748789093772285E-003
   3.5432363301515579       -6.6826051171125734E-003
   3.5904794812202452       -9.8325065882017317E-003
   3.6377226322889329       -1.2832397205246197E-002
   3.6849657833576202       -1.5689637183593161E-002
   3.7322089344263079       -1.8411166061124924E-002
   3.7794520854949951       -2.1003532820016661E-002
   3.8266952365636824       -2.3472923421123202E-002
   3.8739383876323696       -2.5825186001292567E-002
   3.9211815387010578       -2.8065853957135515E-002
   3.9684246897697451       -3.0200167115207645E-002
   4.0156678408384323       -3.2233091167655312E-002
   4.0629109919071196       -3.4169335533942108E-002
   4.1101541429758068       -3.6013369792872008E-002
   4.1573972940444950       -3.7769438814610930E-002
   4.2046404451131822       -3.9441576709442976E-002
   4.2518835961818695       -4.1033619698573963E-002
   4.2991267472505568       -4.2549218001895484E-002
   4.3463698983192440       -4.3991846828606761E-002
   4.3936130493879322       -4.5364816548303766E-002
   4.4408562004566194       -4.6671282112852132E-002
   4.4880993515253067       -4.7914251792768384E-002
   4.5353425025939940       -4.9096595285987511E-002
   4.5825856536626812       -5.0221051251485259E-002
   4.6298288047313694       -5.1290234315603873E-002
   4.6770719558000566       -5.2306641594500609E-002
   4.7243151068687439       -5.3272658772330755E-002
   4.7715582579374312       -5.4190565771296891E-002
   4.8188014090061184       -5.5062542046456643E-002
   4.8660445600748066       -5.5890671535406306E-002
   4.9132877111434938       -5.6676947290310344E-002
   4.9605308622121811       -5.7423275817377863E-002
   5.0077740132808684       -5.8131481146831698E-002
   5.0550171643495556       -5.8803308654370612E-002
   5.1022603154182438       -5.9440428653429418E-002
   5.1495034664869310       -6.0044439775865807E-002
   5.1967466175556183       -6.0616872157339838E-002
   5.2439897686243055       -6.1159190442125824E-002
   5.2912329196929928       -6.1672796621084970E-002
   5.3384760707616810       -6.2159032715214592E-002
   5.3857192218303682       -6.2619183316260679E-002
   5.4329623728990555       -6.3054477994950564E-002
   5.4802055239677427       -6.3466093586418790E-002
   5.5274486750364300       -6.3855156361751875E-002
   5.5746918261051182       -6.4222744093734990E-002
   5.6219349771738054       -6.4569888024250177E-002
   5.6691781282424927       -6.4897574740196987E-002
   5.7164212793111799       -6.5206747964109371E-002
   5.7636644303798672       -6.5498310265333010E-002
   5.8109075814485553       -6.5773124696852148E-002
   5.8581507325172426       -6.6032016362746498E-002
   5.9053938835859299       -6.6275773920524181E-002
   5.9526370346546171       -6.6505151022450082E-002
   5.9998801857233044       -6.6720867699518918E-002
   6.0471233367919925       -6.6923611691403997E-002
   6.0943664878606798       -6.7114039725497884E-002
   6.1416096389293671       -6.7292778747779086E-002
   6.1888527899980543       -6.7460427108119753E-002
   6.2360959410667416       -6.7617555702322113E-002
   6.2833390921354297       -6.7764709073024607E-002
   6.3305822432041170       -6.7902406471405524E-002
   6.3778253942728043       -6.8031142881483569E-002
   6.4250685453414915       -6.8151390008546420E-002
   6.4723116964101788       -6.8263597233324813E-002
   6.5195548474788669       -6.8368192533092065E-002
   6.5667979985475542       -6.8465583371088157E-002
   6.6140411496162415       -6.8556157555293137E-002
   6.6612843006849287       -6.8640284067639126E-002
   6.7085274517536160       -6.8718313864654129E-002
   6.7557706028223041       -6.8790580650371344E-002
   6.8030137538909914       -6.8857401622401795E-002
   6.8502569049596786       -6.8919078191930855E-002
   6.8975000560283659       -6.8975896678340726E-002
   6.9447432070970532       -6.9028128979210443E-002
   6.9919863581657413       -6.9076033216294755E-002
   7.0392295092344286       -6.9119854358142843E-002
   7.0864726603031158       -6.9159824819958055E-002
   7.1337158113718031       -6.9196165041254643E-002
   7.1809589624404904       -6.9229084041899189E-002
   7.2282021135091785       -6.9258779957074537E-002
   7.2754452645778658       -6.9285440551694569E-002
   7.3226884156465530       -6.9309243714821223E-002
   7.3699315667152403       -6.9330357934557649E-002
   7.4171747177839276       -6.9348942753982470E-002
   7.4644178688526157       -6.9365149208571619E-002
   7.5116610199213030       -6.9379120245645423E-002
   7.5589041709899902       -6.9390991126374049E-002
   7.6061473220586784       -6.9400889810728617E-002
   7.6533904731273648       -6.9408937325983938E-002
   7.7006336241960529       -6.9415248119191975E-002
   7.7478767752647393       -6.9419930394141155E-002
   7.7951199263334274       -6.9423086433288678E-002
   7.8423630774021156       -6.9424812905099068E-002
   7.8896062284708020       -6.9425201157340022E-002
   7.9368493795394901       -6.9424337496768435E-002
   7.9840925306081765       -6.9422303455630510E-002
   8.0313356816768646       -6.9419176045545247E-002
   8.0785788327455528       -6.9415027999131518E-002
   8.1258219838142391       -6.9409927999888779E-002
   8.1730651348829273       -6.9403940900728073E-002
   8.2203082859516137       -6.9397127931667982E-002
   8.2675514370203018       -6.9389546897019164E-002
   8.3147945880889900       -6.9381252362608684E-002
   8.3620377391576763       -6.9372295833313100E-002
   8.4092808902263645       -6.9362725921451485E-002
   8.4565240412950509       -6.9352588506330040E-002
   8.5037671923637390       -6.9341926885362115E-002
   8.5510103434324272       -6.9330781917141593E-002
   8.5982534945011135       -6.9319192156843609E-002
   8.6454966455698017       -6.9307193984271181E-002
   8.6927397966384881       -6.9294821724948941E-002
   8.7399829477071762       -6.9282107764541800E-002
   8.7872260987758644       -6.9269082656954029E-002
   8.8344692498445507       -6.9255775226427660E-002
   8.8817124009132389       -6.9242212663922525E-002
   8.9289555519819253       -6.9228420618038036E-002
   8.9761987030506134       -6.9214423280863580E-002
   9.0234418541193016       -6.9200243468880873E-002
   9.0706850051879879       -6.9185902699291618E-002
   9.1179281562566761       -6.9171421261957536E-002
   9.1651713073253624       -6.9156818287221380E-002
   9.2124144583940506       -6.9142111809786772E-002
   9.2596576094627387       -6.9127318828962031E-002
   9.3069007605314251       -6.9112455365350198E-002
   9.3541439116001133       -6.9097536514303795E-002
   9.4013870626687996       -6.9082576496258832E-002
   9.4486302137374878       -6.9067588704134222E-002
   9.4958733648061759       -6.9052585747993070E-002
   9.5431165158748623       -6.9037579497115850E-002
   9.5903596669435505       -6.9022581119599455E-002
   9.6376028180122368       -6.9007601119710146E-002
   9.6848459690809250       -6.8992649373021894E-002
   9.7320891201496131       -6.8977735159572909E-002
   9.7793322712182995       -6.8962867195099281E-002
   9.8265754222869877       -6.8948053660446110E-002
   9.8738185733556740       -6.8933302229361226E-002
   9.9210617244243622       -6.8918620094639352E-002
   9.9683048754930503       -6.8904013992835689E-002
   10.015548026561737       -6.8889490227562494E-002
   10.062791177630425       -6.8875054691482487E-002
   10.110034328699111       -6.8860712887099398E-002
   10.157277479767799       -6.8846469946359332E-002
   10.204520630836488       -6.8832330649226947E-002
   10.251763781905174       -6.8818299441200007E-002
   10.299006932973862       -6.8804380449903529E-002
Scale
Step = 0.0000001
Grid  = 500
Range = 0.4 200.0
Vibrations = 200
Rotations  = 0 0
Orbital    = 0

-- ----------------------------------

--- Start Module: vibrot at Thu Oct 27 22:00:54 2022 ---
 
()()()()()()()()()()()()()()()()()()()()()()()()()()()()()()()()()()()()()()()()()()()()()()()()()()

                                              &VIBROT

                       only a single process is used, running in SERIAL mode
                      available to each process: 2.0 GB of memory, 40 threads
                                            pid: 186152
()()()()()()()()()()()()()()()()()()()()()()()()()()()()()()()()()()()()()()()()()()()()()()()()()()
 

 Vibration-Rotation spectrum for the LiLi molecule.
 Vib-Rot spectrum for Li2(X)                                                    
  

 Rotational quantum number range   0  0
 Electronic angular momentum       0
 Vibrational quantum number range  0199
 Mass of atom   6 Li   0.109649D+05 au
 Mass of atom   6 Li   0.109649D+05 au
 Reduced mass          0.548245D+04 au

 Statistics for numerical integration
 Number of steps           499
 Step length               0.012479
 Radial integration range  0.400000200.000000 au
 logarithmic range        -0.916291  5.298317

 Spectroscopic constants will not be computed
 Matrix elements of operators will not be computed

 Potential read from input
       R(au)     E(au)
     1.511781    0.586329
     1.559024    0.543610
     1.606267    0.504487
     1.653510    0.468564
     1.700753    0.435502
     1.747997    0.405003
     1.795240    0.376809
     1.842483    0.350694
     1.889726    0.326459
     1.936969    0.303930
     1.984212    0.282952
     2.031455    0.263388
     2.078699    0.245115
     2.125942    0.228024
     2.173185    0.212019
     2.220428    0.197012
     2.267671    0.182924
     2.314914    0.169684
     2.362158    0.157230
     2.409401    0.145501
     2.456644    0.134447
     2.503887    0.124020
     2.551130    0.114176
     2.598373    0.104875
     2.645616    0.096081
     2.692860    0.087761
     2.740103    0.079884
     2.787346    0.072423
     2.834589    0.065351
     2.881832    0.058645
     2.929075    0.052283
     2.976319    0.046245
     3.023562    0.040511
     3.070805    0.035064
     3.118048    0.029888
     3.165291    0.024968
     3.212534    0.020290
     3.259777    0.015841
     3.307021    0.011609
     3.354264    0.007581
     3.401507    0.003748
     3.448750    0.000099
     3.495993   -0.003375
     3.543236   -0.006683
     3.590479   -0.009833
     3.637723   -0.012832
     3.684966   -0.015690
     3.732209   -0.018411
     3.779452   -0.021004
     3.826695   -0.023473
     3.873938   -0.025825
     3.921182   -0.028066
     3.968425   -0.030200
     4.015668   -0.032233
     4.062911   -0.034169
     4.110154   -0.036013
     4.157397   -0.037769
     4.204640   -0.039442
     4.251884   -0.041034
     4.299127   -0.042549
     4.346370   -0.043992
     4.393613   -0.045365
     4.440856   -0.046671
     4.488099   -0.047914
     4.535343   -0.049097
     4.582586   -0.050221
     4.629829   -0.051290
     4.677072   -0.052307
     4.724315   -0.053273
     4.771558   -0.054191
     4.818801   -0.055063
     4.866045   -0.055891
     4.913288   -0.056677
     4.960531   -0.057423
     5.007774   -0.058131
     5.055017   -0.058803
     5.102260   -0.059440
     5.149503   -0.060044
     5.196747   -0.060617
     5.243990   -0.061159
     5.291233   -0.061673
     5.338476   -0.062159
     5.385719   -0.062619
     5.432962   -0.063054
     5.480206   -0.063466
     5.527449   -0.063855
     5.574692   -0.064223
     5.621935   -0.064570
     5.669178   -0.064898
     5.716421   -0.065207
     5.763664   -0.065498
     5.810908   -0.065773
     5.858151   -0.066032
     5.905394   -0.066276
     5.952637   -0.066505
     5.999880   -0.066721
     6.047123   -0.066924
     6.094366   -0.067114
     6.141610   -0.067293
     6.188853   -0.067460
     6.236096   -0.067618
     6.283339   -0.067765
     6.330582   -0.067902
     6.377825   -0.068031
     6.425069   -0.068151
     6.472312   -0.068264
     6.519555   -0.068368
     6.566798   -0.068466
     6.614041   -0.068556
     6.661284   -0.068640
     6.708527   -0.068718
     6.755771   -0.068791
     6.803014   -0.068857
     6.850257   -0.068919
     6.897500   -0.068976
     6.944743   -0.069028
     6.991986   -0.069076
     7.039230   -0.069120
     7.086473   -0.069160
     7.133716   -0.069196
     7.180959   -0.069229
     7.228202   -0.069259
     7.275445   -0.069285
     7.322688   -0.069309
     7.369932   -0.069330
     7.417175   -0.069349
     7.464418   -0.069365
     7.511661   -0.069379
     7.558904   -0.069391
     7.606147   -0.069401
     7.653390   -0.069409
     7.700634   -0.069415
     7.747877   -0.069420
     7.795120   -0.069423
     7.842363   -0.069425
     7.889606   -0.069425
     7.936849   -0.069424
     7.984093   -0.069422
     8.031336   -0.069419
     8.078579   -0.069415
     8.125822   -0.069410
     8.173065   -0.069404
     8.220308   -0.069397
     8.267551   -0.069390
     8.314795   -0.069381
     8.362038   -0.069372
     8.409281   -0.069363
     8.456524   -0.069353
     8.503767   -0.069342
     8.551010   -0.069331
     8.598253   -0.069319
     8.645497   -0.069307
     8.692740   -0.069295
     8.739983   -0.069282
     8.787226   -0.069269
     8.834469   -0.069256
     8.881712   -0.069242
     8.928956   -0.069228
     8.976199   -0.069214
     9.023442   -0.069200
     9.070685   -0.069186
     9.117928   -0.069171
     9.165171   -0.069157
     9.212414   -0.069142
     9.259658   -0.069127
     9.306901   -0.069112
     9.354144   -0.069098
     9.401387   -0.069083
     9.448630   -0.069068
     9.495873   -0.069053
     9.543117   -0.069038
     9.590360   -0.069023
     9.637603   -0.069008
     9.684846   -0.068993
     9.732089   -0.068978
     9.779332   -0.068963
     9.826575   -0.068948
     9.873819   -0.068933
     9.921062   -0.068919
     9.968305   -0.068904
    10.015548   -0.068889
    10.062791   -0.068875
    10.110034   -0.068861
    10.157277   -0.068846
    10.204521   -0.068832
    10.251764   -0.068818
    10.299007   -0.068804
 Generating plot file:VIBPLT0 

 Scaling parameter for potential:  161.077101

 extremum points
                        R(au)         Value
 Min point            7.880168     -0.069425
 Extrapolated value at infinity    -0.066276


 Eigenstates

  Vib. q.n.   Rot. q.n.    Energy
      0           0      0.000157
      1           0      0.000442
      2           0      0.000694
      3           0      0.000915
      4           0      0.001113
      5           0      0.001292
      6           0      0.001456
      7           0      0.001605
      8           0      0.001743
      9           0      0.001870
     10           0      0.001988
     11           0      0.002097
     12           0      0.002198
     13           0      0.002292
     14           0      0.002379
     15           0      0.002459
     16           0      0.002534
     17           0      0.002603
     18           0      0.002667
     19           0      0.002726
     20           0      0.002780
     21           0      0.002830
     22           0      0.002875
     23           0      0.002917
     24           0      0.002954
     25           0      0.002988
     26           0      0.003018
     27           0      0.003045
     28           0      0.003068
     29           0      0.003088
     30           0      0.003105
     31           0      0.003120
     32           0      0.003131
     33           0      0.003139
     34           0      0.003145
     35           0      0.003149
 ###############################################################################
 ###############################################################################
 ###                                                                         ###
 ###                                                                         ###
 ###    Location: VibRot                                                     ###
 ###                                                                         ###
 ###                                                                         ###
 ###    Failed to find a state. Try decreasing STEP.                         ###
 ###                                                                         ###
 ###                                                                         ###
 ###############################################################################
 ###############################################################################
--- Stop Module: vibrot at Thu Oct 27 22:01:11 2022 /rc=_RC_NOT_CONVERGED_ ---
*** files: Li2_X.VibWvs xmldump
    saved to directory /home/nike/LEVEL_arpit/LEVEL_2022/test_suite/vibrot/Li2
--- Module vibrot spent 16 seconds ---

.#######################.
.# Convergence problem #.
.#######################.

    Timing: Wall=16.35 User=16.12 System=0.04
