   This run of MOLCAS is using the pymolcas driver

                             OPE
                             OPE          NMOL  CASOP  ENMOLC A   SO
                 OPE        NMOLC        AS  OP EN  MO LC     AS  OP
                OPENM       OL CA        SO  PE NM  OL CA     SOP EN
                OP EN      MO   LC       AS  OP ENMOL  CASO   PENMOL
                OP  EN     MO   LC       AS  OP EN     MO     LC ASO
               OP   E  NMOL  C  AS       OP  EN MO     LC     AS  OP
               OP  E   NMO   LC AS        OPEN  MO     LCASOP EN   M
               O  PEN   MO  LCA  SO
            OPE   NMO   L   CAS    OP
        OPENMOL  CASOP     ENMOL   CASOPE
     OPENMOLCA   SOPENMOLCASOPEN   MOLCASOPE
    OPENMOLCAS   OP           EN   MOL    CAS
    OPENMOLCAS       OP  ENM        O     LCA
    OPENMOLCAS    OPEN  MOLCASO     P  E  NMO
    OPENMOLCAS     OP               E  N  MOL
    OPENMOLCA   SO           PENM   O  L  CAS    OPEN    MO    LCAS
    OPENMOLCA   SOP           ENM   O  L  CAS   OP  EN  MOLC  AS   O
    OPENMOLCA   SOPE           NM      O  LCA   S      OP  EN MO
    OPENMOLC                AS         O  PEN   M      OL  CA  SOPE
    OPENMO        LCASOPE  NMOL        C  ASO   P      ENMOLC     AS
    OPE     NMO      LCA  SO     P     E   NM   OL  CA SO  PE N   MO
          OPENMOLCA            SOPE   NMO        LCAS  O    P  ENMO
     OPENMOLCASOPENMOLCASOPENMOLCASOPENMOLCA
        OPENMOLCASOPENMOLCASOPENMOLCASOPE
            OPENMOLCASOPENMOLCASOPENM
               OPENMOLCASOPENMOLCA        version: v20.10 ?
                   OPENMOLCASO
                       OPE                tag:

 OpenMolcas is free software; you can redistribute it and/or modify it
 under the terms of the GNU Lesser General Public License version 2.1.
 OpenMolcas is distributed in the hope that it will be useful, but it
 is provided "as is" and without any express or implied warranties.
 For more details see the full text of the license in the file
 LICENSE or in <http://www.gnu.org/licenses/>.

                 Copyright (C) The OpenMolcas Authors
           For the author list and the recommended citation,
                   consult the file CONTRIBUTORS.md

           *************************************************
           * pymolcas version py2.13                       *
           *   build df7b0ad5c844738454f9b0a3ade4831c      *
           *   (after the EMIL interpreter by V. Veryazov) *
           *************************************************

configuration info
------------------
Host name: build-node.computecanada.ca (Linux)
C Compiler ID: Intel
C flags: -O2 -xCore-AVX512 -ftz -fp-speculation=safe -fp-model source -std=gnu99 -qopenmp
Fortran Compiler ID: Intel
Fortran flags: -O2 -xCore-AVX512 -ftz -fp-speculation=safe -fp-model source  -fpp -i8 -r8 -heap-arrays -qopenmp
Definitions: _MOLCAS_;_I8_;_LINUX_;_GA_;_MOLCAS_MPP_;SCALAPACK;_MKL_;_FDE_
Parallel: ON (GA=ON)


   -------------------------------------------------------------------------------------------------------------------------------------
  |
  |           Project: Li2_A
  |    Submitted from: /home/nike/LEVEL/LEVEL_2022/test_suite/2013_Li2/OpenMOLCAS
  |      Scratch area: /tmp/Li2_A
  |   Save outputs to: /home/nike/LEVEL/LEVEL_2022/test_suite/2013_Li2/OpenMOLCAS
  |            Molcas: /cvmfs/soft.computecanada.ca/easybuild/software/2020/avx512/MPI/intel2020/openmpi4/openmolcas/20.10
  |
  | Scratch area is NOT empty
  |
  |    MOLCAS_DRIVER = /cvmfs/soft.computecanada.ca/easybuild/software/2020/avx512/MPI/intel2020/openmpi4/openmolcas/20.10/sbin/pymolcas
  |    MOLCAS_NPROCS = 1
  |    MOLCAS_SOURCE = /cvmfs/soft.computecanada.ca/easybuild/software/2020/avx512/MPI/intel2020/openmpi4/openmolcas/20.10
  | MOLCAS_STRUCTURE = 0
  |
   -------------------------------------------------------------------------------------------------------------------------------------

++ ---------   Input file   ---------

&VIBROT
RoVibrational spectrum
NOSPectroscopic
Title = Vib-Rot spectrum for Li2(A)
Atoms = 6 Li  6 Li
Potential
   2.1164931678771977       0.99284037898566524
   2.1283039556443692       0.94418091506711022
   2.1401147434115413       0.89847420558856483
   2.1519255311787129       0.85551265056376757
   2.1637363189458849       0.81510498172758949
   2.1755471067130570       0.77707485158068856
   2.1873578944802285       0.74125955442759461
   2.1991686822474006       0.70750886617083986
   2.2109794700145722       0.67568399103749277
   2.2227902577817442       0.64565660466616526
   2.2346010455489163       0.61730798409490573
   2.2464118333160878       0.59052821617997731
   2.2582226210832599       0.56521547685325468
   2.2700334088504315       0.54127537441098317
   2.2818441966176035       0.51862035072148716
   2.2936549843847756       0.49716913486258046
   2.3054657721519471       0.47684624425430655
   2.3172765599191192       0.45758152884622044
   2.3290873476862908       0.43930975436409159
   2.3408981354534628       0.42197022101319076
   2.3527089232206349       0.40550641439322221
   2.3645197109878064       0.38986568569413799
   2.3763304987549785       0.37499895852932214
   2.3881412865221501       0.36086046001546757
   2.3999520742893221       0.34740747393918703
   2.4117628620564941       0.33460011405526247
   2.4235736498236657       0.32240111574672103
   2.4353844375908378       0.31077564444312400
   2.4471952253580094       0.29969111934343196
   2.4590060131251814       0.28911705112456293
   2.4708168008923534       0.27902489243829820
   2.4826275886595250       0.26938790010920860
   2.4944383764266971       0.26018100804473338
   2.5062491641938687       0.25138070995867146
   2.5180599519610407       0.24296495108947089
   2.5298707397282127       0.23491302816810422
   2.5416815274953843       0.22720549695680559
   2.5534923152625564       0.21982408673903903
   2.5653031030297280       0.21275162119603644
   2.5771138907969000       0.20597194515412320
   2.5889246785640720       0.19946985673196138
   2.6007354663312436       0.19323104445668210
   2.6125462540984157       0.18724202895573500
   2.6243570418655873       0.18149010886373104
   2.6361678296327593       0.17596331061463599
   2.6479786173999313       0.17065034181701139
   2.6597894051671029       0.16554054793536410
   2.6716001929342750       0.16062387202352060
   2.6834109807014466       0.15589081727693746
   2.6952217684686186       0.15133241219000082
   2.7070325562357906       0.14694017812152199
   2.7188433440029622       0.14270609908788937
   2.7306541317701343       0.13862259361765650
   2.7424649195373059       0.13468248851461051
   2.7542757073044779       0.13087899438865741
   2.7660864950716499       0.12720568282477401
   2.7778972828388215       0.12365646507070437
   2.7897080706059936       0.12022557213308817
   2.8015188583731652       0.11690753618061005
   2.8133296461403372       0.11369717316024142
   2.8251404339075092       0.11058956654011808
   2.8345890641212463       0.10817432338618853
   2.9526969417929649        8.2451127754621392E-002
   3.0708048194646835        6.2882868104191220E-002
   3.1889126971364021        4.7360513745319639E-002
   3.3070205748081207        3.4592067503461013E-002
   3.4251284524798393        2.3783015896560910E-002
   3.5432363301515579        1.4445100719231510E-002
   3.6613442078232765        6.2770279667880699E-003
   3.7794520854949951       -9.1144031583910966E-004
   3.8975599631667137       -7.2473424684960644E-003
   4.0156678408384323       -1.2823508180599968E-002
   4.1337757185101509       -1.7714932806062775E-002
   4.2518835961818695       -2.1987117424408627E-002
   4.3699914738535881       -2.5699722897986436E-002
   4.4880993515253067       -2.8907829952680274E-002
   4.6062072291970253       -3.1662211816082815E-002
   4.7243151068687439       -3.4009356685152245E-002
   4.8424229845404625       -3.5991539199905657E-002
   4.9605308622121811       -3.7647003210236014E-002
   5.0786387398838997       -3.9010224339353750E-002
   5.1967466175556183       -4.0112207243941704E-002
   5.3148544952273369       -4.0980788936792356E-002
   5.4329623728990555       -4.1640936561981277E-002
   5.5510702505707741       -4.2115035318513072E-002
   5.6691781282424927       -4.2423161794866451E-002
   5.7872860059142113       -4.2583335898620220E-002
   5.9053938835859299       -4.2611745234121472E-002
   6.0235017612576485       -4.2522939788940992E-002
   6.1416096389293671       -4.2329999905559079E-002
   6.2597175166010857       -4.2044683963412974E-002
   6.3778253942728043       -4.1677562521062111E-002
   6.4959332719445229       -4.1238143295915519E-002
   6.6140411496162415       -4.0734987972850127E-002
   6.7321490272879601       -4.0175819241119404E-002
   6.8502569049596786       -3.9567615687867465E-002
   6.9683647826313972       -3.8916693176291449E-002
   7.0864726603031158       -3.8228773265674899E-002
   7.2045805379748344       -3.7509041025256810E-002
   7.3226884156465530       -3.6762195485018606E-002
   7.4407962933182716       -3.5992495732563662E-002
   7.5589041709899902       -3.5203804589552946E-002
   7.6770120486617088       -3.4399630433979811E-002
   7.7951199263334274       -3.3583166614160033E-002
   7.9132278040051460       -3.2757327353606182E-002
   8.0313356816768646       -3.1924779122878791E-002
   8.1494435593485832       -3.1087966980665779E-002
   8.2675514370203018       -3.0249136080488657E-002
   8.3856593146920204       -2.9410349134660903E-002
   8.5037671923637390       -2.8573500953409998E-002
   8.6218750700354576       -2.7740331189127290E-002
   8.7399829477071762       -2.6912436173377335E-002
   8.8580908253788948       -2.6091280356371930E-002
   8.9761987030506134       -2.5278207472443536E-002
   9.0943065807223320       -2.4474451258218656E-002
   9.2124144583940506       -2.3681145392216097E-002
   9.3305223360657692       -2.2899332307181001E-002
   9.4486302137374878       -2.2129970616635981E-002
   9.5667380914092064       -2.1373941045288950E-002
   9.6848459690809250       -2.0632050909906295E-002
   9.8029538467526436       -1.9905037325559441E-002
   9.9210617244243622       -1.9193569391499320E-002
   10.039169602096081       -1.8498249637433746E-002
   10.157277479767799       -1.7819614993288220E-002
   37.794520854949951       -2.0361980045211254E-004
   38.030736610293388       -1.9981561092244338E-004
   38.975599631667137       -1.8550986520800798E-004
   39.093707509338856       -1.8381847050798620E-004
   40.038570530712605       -1.7099772119455638E-004
   40.156678408384323       -1.6947958421973023E-004
   41.101541429758072       -1.5795562262771410E-004
   42.046404451131821       -1.4744909706664456E-004
   42.164512328803539       -1.4620167666629078E-004
   43.109375350177288       -1.3670893477844200E-004
   44.054238371551037       -1.2801640251512350E-004
   45.117209270596504       -1.1909123268596757E-004
   46.062072291970253       -1.1183703003599853E-004
   47.006935313344002       -1.0515628369769327E-004
   48.069906212389469       -9.8256891674263088E-005
   49.014769233763218       -9.2617920897556316E-005
   50.077740132808685       -8.6773799266917751E-005
   51.022603154182434       -8.1981054942643317E-005
   52.085574053227901       -7.6997788857508011E-005
   53.030437074601650       -7.2898214878663019E-005
   54.093407973647118       -6.8622879820532396E-005
   55.038270995020866       -6.5095506887244525E-005
   56.101241894066334       -6.1406684287328056E-005
   57.046104915440083       -5.8355040779399178E-005
   58.109075814485550       -5.5155491003291759E-005
   59.053938835859299       -5.2502000077939398E-005
   60.116909734904766       -4.9713221863580238E-005
   61.061772756278515       -4.7395017904000666E-005
   62.006635777652264       -4.5216233730862141E-005
   63.069606676697731       -4.2918936339469960E-005
   64.014469698071480       -4.1003271698709714E-005
   64.132577575743198       -4.0771718191158298E-005
   65.077440597116947       -3.8979304563901823E-005
   66.022303618490696       -3.7288235585368046E-005
   67.085274517536163       -3.5498159350591212E-005
   68.030137538909912       -3.3999743014573429E-005
   69.093108437955379       -3.2410760961107660E-005
   70.037971459329128       -3.1078359514405282E-005
   71.100942358374596       -2.9663047621060341E-005
   72.045805379748344       -2.8474328069063505E-005
   73.108776278793812       -2.7209635277388305E-005
   74.053639300167561       -2.6145778938093383E-005
   75.116610199213028       -2.5012234591270983E-005
   76.061473220586777       -2.4057308342175282E-005
   77.006336241960526       -2.3148825216433309E-005
   78.069307141005993       -2.2178842618801102E-005
   79.014170162379742       -2.1360067412079010E-005
   80.077141061425209       -2.0484724897180533E-005
   81.022004082798958       -1.9744896028383936E-005
   82.084974981844425       -1.8952976402982881E-005
   83.029838003218174       -1.8282848009609638E-005
   84.092808902263641       -1.7564695691702739E-005
   85.037671923637390       -1.6956294313104688E-005
   86.100642822682858       -1.6303567486796812E-005
   87.045505844056606       -1.5749992388818502E-005
   88.108476743102074       -1.5155459118795173E-005
   89.053339764475822       -1.4650717643286822E-005
   90.116310663521290       -1.4108087363675116E-005
   91.061173684895039       -1.3646958536298806E-005
   92.006036706268787       -1.3204738070321058E-005
   93.069007605314255       -1.2728663204161184E-005
   94.013870626688004       -1.2323545557630120E-005
   95.076841525733471       -1.1887028009734451E-005
   96.021704547107220       -1.1515250595642035E-005
   97.084675446152687       -1.1114320366428716E-005
   98.029538467526436       -1.0772571532501340E-005
   99.092509366571903       -1.0403729704503971E-005
   100.03737238794565       -1.0089086892723824E-005
   101.10034328699112       -9.7492416431016035E-006
   102.04520630836487       -9.4591190382384275E-006
   103.10817720741034       -9.1455313751976712E-006
   104.05304022878408       -8.8776354327421653E-006
   105.11601112782955       -8.5878730218133827E-006
   106.06087414920330       -8.3401645635333069E-006
   107.00573717057705       -8.1013148444439671E-006
   108.06870806962252       -7.8427241130361903E-006
   109.01357109099627       -7.6214582188177252E-006
   110.07654199004173       -7.3817594043077829E-006
   111.02140501141548       -7.1765371525851904E-006
   112.08437591046095       -6.9540904932851174E-006
   113.02923893183470       -6.7635318645069823E-006
   114.09220983088017       -6.5568665628309447E-006
   115.03707285225391       -6.3797324398870499E-006
   116.10004375129938       -6.1875265031967672E-006
   117.04490677267313       -6.0227019911065221E-006
   118.10787767171860       -5.8437647509363510E-006
   119.05274069309235       -5.6902446948727979E-006
   120.11571159213781       -5.5235016118804507E-006
   121.06057461351156       -5.3803779942323646E-006
   122.00543763488531       -5.2418575500478812E-006
   123.06840853393078       -5.0913083686583408E-006
   124.01327155530453       -4.9620027512365412E-006
   125.07624245434999       -4.8214101706208501E-006
   126.02110547572374       -4.7006070895680755E-006
   127.08407637476921       -4.5692071057603748E-006
   128.02893939614296       -4.4562588096872486E-006
   129.09191029518843       -4.3333559989985635E-006
   130.03677331656218       -4.2276723387447804E-006
   131.09974421560764       -4.1126325430719260E-006
   132.04460723698139       -4.0136748759239899E-006
   133.10757813602686       -3.9059187709212316E-006
   134.05244115740061       -3.8131945974945270E-006
   135.11541205644608       -3.7121920307653776E-006
   136.06027507781982       -3.6252502715675095E-006
   137.00513809919357       -3.5408843257885877E-006
   138.06810899823904       -3.4489421052499212E-006
   139.01297201961279       -3.3697618371882063E-006
   140.07594291865826       -3.2834436706926658E-006
   141.02080594003201       -3.2090834950920376E-006
   142.08377683907747       -3.1279947764389639E-006
   143.02863986045122       -3.0581180515453185E-006
   144.09161075949669       -2.9818951672325001E-006
   145.03647378087044       -2.9161914869363271E-006
   146.09944467991590       -2.8444989496538162E-006
   147.04430770128965       -2.7826817452221757E-006
   148.10727860033512       -2.7152096531327195E-006
   149.05214162170887       -2.6570140657065828E-006
   150.11511252075434       -2.5934758464555924E-006
   151.17808341979980       -2.5319116008805217E-006
   151.88673068583012       -2.4919300663592629E-006
   152.71348582953215       -2.4463263823905478E-006
   153.06780946254730       -2.4271178996458913E-006
   153.77645672857761       -2.3892926904105650E-006
   154.60321187227964       -2.3461392099686640E-006
   155.66618277132511       -2.2921554351339283E-006
   154.95753550529480       -2.3279597244793715E-006
   155.54807489365339       -2.2980720069860145E-006
   156.49293791502714       -2.2512986708329815E-006
   156.84726154804230       -2.2340838429157514E-006
   157.43780093640089       -2.2057782597073091E-006
   158.38266395777464       -2.1614712447059112E-006
   158.73698759078979       -2.1451611101939964E-006
   159.20941910147667       -2.1236679324627941E-006
   160.27239000052214       -2.0763460381070458E-006
   160.62671363353729       -2.0608846869763954E-006
   161.21725302189589       -2.0354553906299464E-006
   162.16211604326963       -1.9956331334575577E-006
   162.51643967628479       -1.9809684168458089E-006
   163.10697906464338       -1.9568460571648404E-006
   164.05184208601713       -1.9190620819731485E-006
   164.40616571903229       -1.9051453441668356E-006
   164.99670510739088       -1.8822502173333933E-006
   165.94156812876463       -1.8463805231493537E-006
   166.29589176177979       -1.8331663555962997E-006
   166.88643115013838       -1.8114240725460387E-006
   167.83129417151213       -1.7773529160979907E-006
   168.18561780452728       -1.7647989309320723E-006
   168.77615719288588       -1.7441400474366563E-006
   169.72102021425962       -1.7117593701639653E-006
   170.07534384727478       -1.6998259911025432E-006
   170.66588323563337       -1.6801856660049146E-006
   171.61074625700712       -1.6493945641365072E-006
   171.96506989002228       -1.6380448329362397E-006
   172.55560927838087       -1.6193625116358183E-006
   173.50047229975462       -1.5900667449947437E-006
   173.85479593276978       -1.5792661419263306E-006
   174.44533532112837       -1.5614852626526816E-006
   175.39019834250212       -1.5335967985018057E-006
   175.74452197551727       -1.5233130755384569E-006
   176.33506136387587       -1.5063807963235669E-006
   177.27992438524961       -1.4798173851181410E-006
   177.63424801826477       -1.4700204107247477E-006
   178.22478740662336       -1.4538873552904261E-006
   179.16965042799711       -1.4285721356591382E-006
   179.52397406101227       -1.4192337502287795E-006
   180.11451344937086       -1.4038537712586656E-006
   181.05937647074461       -1.3797149019032436E-006
   181.41370010375977       -1.3708087830172442E-006
   182.00423949211836       -1.3561387414868867E-006
   182.94910251349211       -1.3331090579928754E-006
   183.30342614650726       -1.3246105947847365E-006
   183.89396553486586       -1.3106101541880665E-006
   184.83882855623960       -1.2886268489793238E-006
   185.19315218925476       -1.2805130249663330E-006
   185.78369157761335       -1.2671444594092973E-006
   186.72855459898710       -1.2461487832712708E-006
   187.08287823200226       -1.2383980670852911E-006
   187.67341762036085       -1.2256260823220279E-006
   188.61828064173460       -1.2055630660742393E-006
   188.97260427474976       -1.1981553095760872E-006
Scale
Step = 0.000000001
Grid  = 340
Range = 0.4 310.0
Vibrations = 200
Rotations  = 0 0
Orbital    = 0

-- ----------------------------------

--- Start Module: vibrot at Sat Oct 29 19:36:09 2022 ---
 
()()()()()()()()()()()()()()()()()()()()()()()()()()()()()()()()()()()()()()()()()()()()()()()()()()

                                              &VIBROT

                       only a single process is used, running in SERIAL mode
                      available to each process: 2.0 GB of memory, 40 threads
                                             pid: 51915
()()()()()()()()()()()()()()()()()()()()()()()()()()()()()()()()()()()()()()()()()()()()()()()()()()
 

 Vibration-Rotation spectrum for the LiLi molecule.
 Vib-Rot spectrum for Li2(A)                                                    
  

 Rotational quantum number range   0  0
 Electronic angular momentum       0
 Vibrational quantum number range  0199
 Mass of atom   6 Li   0.109649D+05 au
 Mass of atom   6 Li   0.109649D+05 au
 Reduced mass          0.548245D+04 au

 Statistics for numerical integration
 Number of steps           339
 Step length               0.019683
 Radial integration range  0.400000310.000000 au
 logarithmic range        -0.916291  5.736572

 Spectroscopic constants will not be computed
 Matrix elements of operators will not be computed

 Potential read from input
       R(au)     E(au)
     2.116493    0.992840
     2.128304    0.944181
     2.140115    0.898474
     2.151926    0.855513
     2.163736    0.815105
     2.175547    0.777075
     2.187358    0.741260
     2.199169    0.707509
     2.210979    0.675684
     2.222790    0.645657
     2.234601    0.617308
     2.246412    0.590528
     2.258223    0.565215
     2.270033    0.541275
     2.281844    0.518620
     2.293655    0.497169
     2.305466    0.476846
     2.317277    0.457582
     2.329087    0.439310
     2.340898    0.421970
     2.352709    0.405506
     2.364520    0.389866
     2.376330    0.374999
     2.388141    0.360860
     2.399952    0.347407
     2.411763    0.334600
     2.423574    0.322401
     2.435384    0.310776
     2.447195    0.299691
     2.459006    0.289117
     2.470817    0.279025
     2.482628    0.269388
     2.494438    0.260181
     2.506249    0.251381
     2.518060    0.242965
     2.529871    0.234913
     2.541682    0.227205
     2.553492    0.219824
     2.565303    0.212752
     2.577114    0.205972
     2.588925    0.199470
     2.600735    0.193231
     2.612546    0.187242
     2.624357    0.181490
     2.636168    0.175963
     2.647979    0.170650
     2.659789    0.165541
     2.671600    0.160624
     2.683411    0.155891
     2.695222    0.151332
     2.707033    0.146940
     2.718843    0.142706
     2.730654    0.138623
     2.742465    0.134682
     2.754276    0.130879
     2.766086    0.127206
     2.777897    0.123656
     2.789708    0.120226
     2.801519    0.116908
     2.813330    0.113697
     2.825140    0.110590
     2.834589    0.108174
     2.952697    0.082451
     3.070805    0.062883
     3.188913    0.047361
     3.307021    0.034592
     3.425128    0.023783
     3.543236    0.014445
     3.661344    0.006277
     3.779452   -0.000911
     3.897560   -0.007247
     4.015668   -0.012824
     4.133776   -0.017715
     4.251884   -0.021987
     4.369991   -0.025700
     4.488099   -0.028908
     4.606207   -0.031662
     4.724315   -0.034009
     4.842423   -0.035992
     4.960531   -0.037647
     5.078639   -0.039010
     5.196747   -0.040112
     5.314854   -0.040981
     5.432962   -0.041641
     5.551070   -0.042115
     5.669178   -0.042423
     5.787286   -0.042583
     5.905394   -0.042612
     6.023502   -0.042523
     6.141610   -0.042330
     6.259718   -0.042045
     6.377825   -0.041678
     6.495933   -0.041238
     6.614041   -0.040735
     6.732149   -0.040176
     6.850257   -0.039568
     6.968365   -0.038917
     7.086473   -0.038229
     7.204581   -0.037509
     7.322688   -0.036762
     7.440796   -0.035992
     7.558904   -0.035204
     7.677012   -0.034400
     7.795120   -0.033583
     7.913228   -0.032757
     8.031336   -0.031925
     8.149444   -0.031088
     8.267551   -0.030249
     8.385659   -0.029410
     8.503767   -0.028574
     8.621875   -0.027740
     8.739983   -0.026912
     8.858091   -0.026091
     8.976199   -0.025278
     9.094307   -0.024474
     9.212414   -0.023681
     9.330522   -0.022899
     9.448630   -0.022130
     9.566738   -0.021374
     9.684846   -0.020632
     9.802954   -0.019905
     9.921062   -0.019194
    10.039170   -0.018498
    10.157277   -0.017820
    37.794521   -0.000204
    38.030737   -0.000200
    38.975600   -0.000186
    39.093708   -0.000184
    40.038571   -0.000171
    40.156678   -0.000169
    41.101541   -0.000158
    42.046404   -0.000147
    42.164512   -0.000146
    43.109375   -0.000137
    44.054238   -0.000128
    45.117209   -0.000119
    46.062072   -0.000112
    47.006935   -0.000105
    48.069906   -0.000098
    49.014769   -0.000093
    50.077740   -0.000087
    51.022603   -0.000082
    52.085574   -0.000077
    53.030437   -0.000073
    54.093408   -0.000069
    55.038271   -0.000065
    56.101242   -0.000061
    57.046105   -0.000058
    58.109076   -0.000055
    59.053939   -0.000053
    60.116910   -0.000050
    61.061773   -0.000047
    62.006636   -0.000045
    63.069607   -0.000043
    64.014470   -0.000041
    64.132578   -0.000041
    65.077441   -0.000039
    66.022304   -0.000037
    67.085275   -0.000035
    68.030138   -0.000034
    69.093108   -0.000032
    70.037971   -0.000031
    71.100942   -0.000030
    72.045805   -0.000028
    73.108776   -0.000027
    74.053639   -0.000026
    75.116610   -0.000025
    76.061473   -0.000024
    77.006336   -0.000023
    78.069307   -0.000022
    79.014170   -0.000021
    80.077141   -0.000020
    81.022004   -0.000020
    82.084975   -0.000019
    83.029838   -0.000018
    84.092809   -0.000018
    85.037672   -0.000017
    86.100643   -0.000016
    87.045506   -0.000016
    88.108477   -0.000015
    89.053340   -0.000015
    90.116311   -0.000014
    91.061174   -0.000014
    92.006037   -0.000013
    93.069008   -0.000013
    94.013871   -0.000012
    95.076842   -0.000012
    96.021705   -0.000012
    97.084675   -0.000011
    98.029538   -0.000011
    99.092509   -0.000010
   100.037372   -0.000010
   101.100343   -0.000010
   102.045206   -0.000009
   103.108177   -0.000009
   104.053040   -0.000009
   105.116011   -0.000009
   106.060874   -0.000008
   107.005737   -0.000008
   108.068708   -0.000008
   109.013571   -0.000008
   110.076542   -0.000007
   111.021405   -0.000007
   112.084376   -0.000007
   113.029239   -0.000007
   114.092210   -0.000007
   115.037073   -0.000006
   116.100044   -0.000006
   117.044907   -0.000006
   118.107878   -0.000006
   119.052741   -0.000006
   120.115712   -0.000006
   121.060575   -0.000005
   122.005438   -0.000005
   123.068409   -0.000005
   124.013272   -0.000005
   125.076242   -0.000005
   126.021105   -0.000005
   127.084076   -0.000005
   128.028939   -0.000004
   129.091910   -0.000004
   130.036773   -0.000004
   131.099744   -0.000004
   132.044607   -0.000004
   133.107578   -0.000004
   134.052441   -0.000004
   135.115412   -0.000004
   136.060275   -0.000004
   137.005138   -0.000004
   138.068109   -0.000003
   139.012972   -0.000003
   140.075943   -0.000003
   141.020806   -0.000003
   142.083777   -0.000003
   143.028640   -0.000003
   144.091611   -0.000003
   145.036474   -0.000003
   146.099445   -0.000003
   147.044308   -0.000003
   148.107279   -0.000003
   149.052142   -0.000003
   150.115113   -0.000003
   151.178083   -0.000003
   151.886731   -0.000002
   152.713486   -0.000002
   153.067809   -0.000002
   153.776457   -0.000002
   154.603212   -0.000002
   155.666183   -0.000002
   154.957536   -0.000002
   155.548075   -0.000002
   156.492938   -0.000002
   156.847262   -0.000002
   157.437801   -0.000002
   158.382664   -0.000002
   158.736988   -0.000002
   159.209419   -0.000002
   160.272390   -0.000002
   160.626714   -0.000002
   161.217253   -0.000002
   162.162116   -0.000002
   162.516440   -0.000002
   163.106979   -0.000002
   164.051842   -0.000002
   164.406166   -0.000002
   164.996705   -0.000002
   165.941568   -0.000002
   166.295892   -0.000002
   166.886431   -0.000002
   167.831294   -0.000002
   168.185618   -0.000002
   168.776157   -0.000002
   169.721020   -0.000002
   170.075344   -0.000002
   170.665883   -0.000002
   171.610746   -0.000002
   171.965070   -0.000002
   172.555609   -0.000002
   173.500472   -0.000002
   173.854796   -0.000002
   174.445335   -0.000002
   175.390198   -0.000002
   175.744522   -0.000002
   176.335061   -0.000002
   177.279924   -0.000001
   177.634248   -0.000001
   178.224787   -0.000001
   179.169650   -0.000001
   179.523974   -0.000001
   180.114513   -0.000001
   181.059376   -0.000001
   181.413700   -0.000001
   182.004239   -0.000001
   182.949103   -0.000001
   183.303426   -0.000001
   183.893966   -0.000001
   184.838829   -0.000001
   185.193152   -0.000001
   185.783692   -0.000001
   186.728555   -0.000001
   187.082878   -0.000001
   187.673418   -0.000001
   188.618281   -0.000001
   188.972604   -0.000001
 Generating plot file:VIBPLT0 

 Scaling parameter for potential:    2.346837

 extremum points
                        R(au)         Value
 Min point            5.873137     -0.042616
 Extrapolated value at infinity    -0.000001


 Eigenstates

  Vib. q.n.   Rot. q.n.    Energy
      0           0      0.000627
      1           0      0.001867
      2           0      0.003090
      3           0      0.004296
      4           0      0.005484
      5           0      0.006654
      6           0      0.007806
      7           0      0.008940
      8           0      0.010055
      9           0      0.011152
     10           0      0.012229
     11           0      0.013288
     12           0      0.014326
     13           0      0.015345
     14           0      0.016344
     15           0      0.017323
     16           0      0.018281
     17           0      0.019218
     18           0      0.020134
     19           0      0.021028
     20           0      0.021900
     21           0      0.022750
     22           0      0.023578
     23           0      0.024382
     24           0      0.025162
     25           0      0.025918
     26           0      0.026646
     27           0      0.027347
     28           0      0.028019
     29           0      0.028663
     30           0      0.029277
     31           0      0.029860
     32           0      0.030412
     33           0      0.030939
     34           0      0.031409
     35           0      0.031799
     36           0      0.032317
     37           0      0.032673
     38           0      0.032932
     39           0      0.033550
     40           0      0.034164
     41           0      0.034328
     42           0      0.034761
     43           0      0.035334
     44           0      0.035880
     45           0      0.036388
     46           0      0.036397
     47           0      0.036885
     48           0      0.037342
     49           0      0.037768
     50           0      0.038166
     51           0      0.038535
     52           0      0.038773
     53           0      0.038877
     54           0      0.039194
     55           0      0.039488
     56           0      0.039760
     57           0      0.040012
     58           0      0.040245
     59           0      0.040460
     60           0      0.040659
     61           0      0.040842
     62           0      0.041012
     63           0      0.041169
     64           0      0.041313
     65           0      0.041446
     66           0      0.041455
     67           0      0.041568
     68           0      0.041681
     69           0      0.041784
     70           0      0.041879
     71           0      0.041966
     72           0      0.042045
     73           0      0.042116
     74           0      0.042181
     75           0      0.042239
     76           0      0.042291
     77           0      0.042337
     78           0      0.042378
     79           0      0.042413
     80           0      0.042443
     81           0      0.042468
     82           0      0.042491
     83           0      0.042510
     84           0      0.042527
     85           0      0.042541
     86           0      0.042554
     87           0      0.042565
     88           0      0.042574
     89           0      0.042581
     90           0      0.042588
     91           0      0.042594
     92           0      0.042598
     93           0      0.042602
     94           0      0.042605
     95           0      0.042608
     96           0      0.042610
     97           0      0.042611
     98           0      0.042613
     99           0      0.042614
    100           0      0.042615
    101           0      0.042615     Warning:function value at Rmax is    0.046325
 ###############################################################################
 ###############################################################################
 ###                                                                         ###
 ###                                                                         ###
 ###    Location: VibRot                                                     ###
 ###                                                                         ###
 ###                                                                         ###
 ###    Failed to find a state. Try decreasing STEP.                         ###
 ###                                                                         ###
 ###                                                                         ###
 ###############################################################################
 ###############################################################################
--- Stop Module: vibrot at Sat Oct 29 19:39:42 2022 /rc=_RC_NOT_CONVERGED_ ---
*** files: Li2_A.VibWvs xmldump
    saved to directory /home/nike/LEVEL/LEVEL_2022/test_suite/2013_Li2/OpenMOLCAS
--- Module vibrot spent 3 minutes 33 seconds ---

.#######################.
.# Convergence problem #.
.#######################.

    Timing: Wall=213.36 User=212.71 System=0.10
