# this is a generated file! do not edit.
WorkDir=/home/nike/build_OpenMolcas_HPQC_LEVEL_2022_12_08/test/tmp/standard__800
Project=standard__800
SubProject=
GeoDir=/home/nike/build_OpenMolcas_HPQC_LEVEL_2022_12_08/test/tmp/standard__800/standard__800.GEO
MOLCAS=/home/nike/build_OpenMolcas_HPQC_LEVEL_2022_12_08
MOLCAS_CURRENT_PROGRAM=check
MOLCAS_DISK=20000
MOLCAS_DRIVER=/home/nike/build_OpenMolcas_HPQC_LEVEL_2022_12_08/pymolcas
MOLCAS_INFO=Molcas version 22.06-158-g2aed968e5!Linux cedar5.cedar.computecanada.ca 3.10.0-1160.80.1.el7.x86_64 #1 SMP Tue Nov 8 15:48:59 UTC 2022 x86_64 GNU/Linux!Tue Dec 27 11:29:57 2022!
MOLCAS_ITER=0
MOLCAS_MEM=2048
MOLCAS_NPROCS=1
MOLCAS_OUTPUT=/home/nike/build_OpenMolcas_HPQC_LEVEL_2022_12_08/test/tmp/standard__800
MOLCAS_SOURCE=/home/nike/OpenMolcas_HPQC_LEVEL
MOLCAS_STRUCTURE=0
MOLCAS_SUBMIT_DIR=/home/nike/build_OpenMolcas_HPQC_LEVEL_2022_12_08/test/tmp
MOLCAS_TEST=GENE
MOLCAS_TIME=YES
MOLCAS_TIMELIM=600
MOLCAS_VALIDATE=YES
