   This run of MOLCAS is using the pymolcas driver

                             OPE
                             OPE          NMOL  CASOP  ENMOLC A   SO
                 OPE        NMOLC        AS  OP EN  MO LC     AS  OP
                OPENM       OL CA        SO  PE NM  OL CA     SOP EN
                OP EN      MO   LC       AS  OP ENMOL  CASO   PENMOL
                OP  EN     MO   LC       AS  OP EN     MO     LC ASO
               OP   E  NMOL  C  AS       OP  EN MO     LC     AS  OP
               OP  E   NMO   LC AS        OPEN  MO     LCASOP EN   M
               O  PEN   MO  LCA  SO
            OPE   NMO   L   CAS    OP
        OPENMOL  CASOP     ENMOL   CASOPE
     OPENMOLCA   SOPENMOLCASOPEN   MOLCASOPE
    OPENMOLCAS   OP           EN   MOL    CAS
    OPENMOLCAS       OP  ENM        O     LCA
    OPENMOLCAS    OPEN  MOLCASO     P  E  NMO
    OPENMOLCAS     OP               E  N  MOL
    OPENMOLCA   SO           PENM   O  L  CAS    OPEN    MO    LCAS
    OPENMOLCA   SOP           ENM   O  L  CAS   OP  EN  MOLC  AS   O
    OPENMOLCA   SOPE           NM      O  LCA   S      OP  EN MO
    OPENMOLC                AS         O  PEN   M      OL  CA  SOPE
    OPENMO        LCASOPE  NMOL        C  ASO   P      ENMOLC     AS
    OPE     NMO      LCA  SO     P     E   NM   OL  CA SO  PE N   MO
          OPENMOLCA            SOPE   NMO        LCAS  O    P  ENMO
     OPENMOLCASOPENMOLCASOPENMOLCASOPENMOLCA
        OPENMOLCASOPENMOLCASOPENMOLCASOPE
            OPENMOLCASOPENMOLCASOPENM
               OPENMOLCASOPENMOLCA        version: 22.06
                   OPENMOLCASO
                       OPE                tag: 110-gf028b1278

 OpenMolcas is free software; you can redistribute it and/or modify it
 under the terms of the GNU Lesser General Public License version 2.1.
 OpenMolcas is distributed in the hope that it will be useful, but it
 is provided "as is" and without any express or implied warranties.
 For more details see the full text of the license in the file
 LICENSE or in <http://www.gnu.org/licenses/>.

                 Copyright (C) The OpenMolcas Authors
           For the author list and the recommended citation,
                   consult the file CONTRIBUTORS.md

           *************************************************
           * pymolcas version py2.23                       *
           *   build d53e6f8e18683222a6e02cb84ce98eb3      *
           *   (after the EMIL interpreter by V. Veryazov) *
           *************************************************

configuration info
------------------
Host name: Arpits-MacBook-Air.local (macOS)
C Compiler ID: AppleClang
C flags: -std=gnu99
Fortran Compiler ID: GNU
Fortran flags: -fno-aggressive-loop-optimizations -cpp -fdefault-integer-8 -fmax-stack-var-size=1048576
Definitions: _MOLCAS_;_I8_;_LINUX_;_DARWIN_;_DARWIN_C_SOURCE
Parallel: OFF (GA=OFF)


   ------------------------------------------------------------------------
  |
  |           Project: li2
  |    Submitted from: /Users/arpitarunkumaar
  |      Scratch area: /var/folders/c3/rhj39hv90vx5ff1jpz11zd8m0000gn/T/li2
  |   Save outputs to: /Users/arpitarunkumaar
  |            Molcas: /Users/arpitarunkumaar/build
  |
  | Scratch area is NOT empty
  |
  |    MOLCAS_DRIVER = /Users/arpitarunkumaar/build/pymolcas
  |    MOLCAS_NPROCS = 1
  |    MOLCAS_SOURCE = /Users/arpitarunkumaar/OpenMolcas
  | MOLCAS_STRUCTURE = 0
  |
   ------------------------------------------------------------------------

++ ---------   Input file   ---------

&VIBROT
RoVibrational spectrum
Title = Vib-Rot spectrum for BeD
Atoms = 0 Be  0 D
Potential
   1.1338356256484985       0.56024964257602816
   1.2283219277858735       0.43431877153016013
   1.3228082299232482       0.33461642111154966
   1.4172945320606232       0.25569587079969369
   1.5117808341979981       0.19332569312877332
   1.6062671363353729       0.14418986026306765
   1.7007534384727478       0.10567314061042361
   1.7952397406101226        7.5702369773921419E-002
   1.8897260427474976        5.2626600711550051E-002
   1.9842123448848725        3.5125384709225271E-002
   2.0786986470222475        2.2138211974339354E-002
   2.1731849491596220        1.2809739930676642E-002
   2.2676712512969970        6.4472461605914761E-003
   2.3621575534343719        2.4874172779504986E-003
   2.4566438555717469        4.7040059933669908E-004
   2.4944383764266971        1.2076566369387365E-004
   2.5133356368541717        3.3019760980550929E-005
   2.5322328972816468        0.0000000000000000
   2.5511301577091219        1.9350755469076829E-005
   2.5700274181365970        8.8725514774978356E-005
   2.5889246785640720        2.0598280038757366E-004
   2.6078219389915462        3.6899024744707274E-004
   2.6456164598464964        8.2417268731433064E-004
   2.7401027619838714        2.6288778159887440E-003
   2.8345890641212463        5.2211682605584429E-003
   2.9290753662586213        8.4243083360952369E-003
   3.0235616683959963        1.2090508755009069E-002
   3.1180479705333708        1.6095586602228193E-002
   3.2125342726707458        2.0334614035111370E-002
   3.4015068769454957        2.9170441451135044E-002
   3.5904794812202452        3.8024152482702897E-002
   3.7794520854949951        4.6461810880847679E-002
   3.9684246897697451        5.4148106827702581E-002
   4.1573972940444950        6.0832200403126535E-002
   4.3463698983192440        6.6351753941330111E-002
   4.5353425025939940        7.0666699030824023E-002
   4.7243151068687439        7.3858917570957139E-002
   4.9132877111434938        7.6107213822825079E-002
   5.2912329196929928        7.8633833808582507E-002
   5.6691781282424927        7.9699870435752010E-002
   6.6140411496162415        8.0378778045160734E-002
   7.5589041709899902        8.0517295190678850E-002
   8.5037671923637390        8.0593632030125276E-002
   9.4486302137374878        8.0641824387223546E-002
   11.338356256484985        8.0685515085173382E-002
   15.117808341979980        8.0703699418838828E-002
   18.897260427474976        8.0706278304545326E-002
   37.794520854949951        8.0707112113881527E-002
Plot  = 1.0 10.0 0.1
STEP = 0.0001
Grid  = 500
Range = 1.0 10.0
Vibrations = 10
Rotations  = 2 10
Orbital    = 2

-- ----------------------------------

--- Start Module: vibrot at Thu Oct 27 14:20:21 2022 ---

()()()()()()()()()()()()()()()()()()()()()()()()()()()()()()()()()()()()()()()()()()()()()()()()()()

                                              &VIBROT

                                   only a single process is used
                       available to each process: 2.0 GB of memory, 1 thread?
                                             pid: 80318
()()()()()()()()()()()()()()()()()()()()()()()()()()()()()()()()()()()()()()()()()()()()()()()()()()


 Vibration-Rotation spectrum for the BeD  molecule.
 Vib-Rot spectrum for BeD                                                        

 Rotational quantum number range   2 10
 Electronic angular momentum       2
 Vibrational quantum number range  0  9
 Mass of atom   9 Be   16428.204745 au
 Mass of atom   2 D     3671.482941 au
 Reduced mass           3000.836352 au

 Statistics for numerical integration
 Number of steps           499
 Step length               0.004624
 Radial integration range  1.000000 10.000000 au
 logarithmic range         0.000000  2.302585

 Spectroscopic constants will be computed
 Matrix elements of operators will not be computed

 Potential read from input
       R(au)     E(au)
     1.133836    0.560250
     1.228322    0.434319
     1.322808    0.334616
     1.417295    0.255696
     1.511781    0.193326
     1.606267    0.144190
     1.700753    0.105673
     1.795240    0.075702
     1.889726    0.052627
     1.984212    0.035125
     2.078699    0.022138
     2.173185    0.012810
     2.267671    0.006447
     2.362158    0.002487
     2.456644    0.000470
     2.494438    0.000121
     2.513336    0.000033
     2.532233    0.000000
     2.551130    0.000019
     2.570027    0.000089
     2.588925    0.000206
     2.607822    0.000369
     2.645616    0.000824
     2.740103    0.002629
     2.834589    0.005221
     2.929075    0.008424
     3.023562    0.012091
     3.118048    0.016096
     3.212534    0.020335
     3.401507    0.029170
     3.590479    0.038024
     3.779452    0.046462
     3.968425    0.054148
     4.157397    0.060832
     4.346370    0.066352
     4.535343    0.070667
     4.724315    0.073859
     4.913288    0.076107
     5.291233    0.078634
     5.669178    0.079700
     6.614041    0.080379
     7.558904    0.080517
     8.503767    0.080594
     9.448630    0.080642
    11.338356    0.080686
    15.117808    0.080704
    18.897260    0.080706
    37.794521    0.080707
 A plot file of the potential will be generated
 Generating plot file:VIBPLT0 

 Scaling parameter for potential:    1.000000

 extremum points
                        R(au)         Value
 Min point         2.534562     -0.000000
 Extrapolated value at infinity     0.080707


 Eigenstates

  Vib. q.n.   Rot. q.n.    Energy
      0           2      0.003515
      1           2      0.010296
      2           2      0.016888
      3           2      0.023288
      4           2      0.029492
      5           2      0.035493
      6           2      0.041284
      7           2      0.046853
      8           2      0.052187
      9           2      0.057264
      0           3      0.003669
      1           3      0.010447
      2           3      0.017035
      3           3      0.023432
      4           3      0.029631
      5           3      0.035629
      6           3      0.041416
      7           3      0.046981
      8           3      0.052311
      9           3      0.057383
      0           4      0.003874
      1           4      0.010647
      2           4      0.017231
      3           4      0.023623
      4           4      0.029818
      5           4      0.035810
      6           4      0.041592
      7           4      0.047152
      8           4      0.052476
      9           4      0.057542
      0           5      0.004130
      1           5      0.010897
      2           5      0.017475
      3           5      0.023861
      4           5      0.030050
      5           5      0.036037
      6           5      0.041812
      7           5      0.047366
      8           5      0.052682
      9           5      0.057740
      0           6      0.004436
      1           6      0.011197
      2           6      0.017768
      3           6      0.024147
      4           6      0.030329
      5           6      0.036308
      6           6      0.042076
      7           6      0.047621
      8           6      0.052929
      9           6      0.057978
      0           7      0.004794
      1           7      0.011546
      2           7      0.018109
      3           7      0.024480
      4           7      0.030653
      5           7      0.036624
      6           7      0.042383
      7           7      0.047919
      8           7      0.053217
      9           7      0.058255
      0           8      0.005201
      1           8      0.011944
      2           8      0.018498
      3           8      0.024859
      4           8      0.031023
      5           8      0.036984
      6           8      0.042733
      7           8      0.048258
      8           8      0.053545
      9           8      0.058571
      0           9      0.005659
      1           9      0.012392
      2           9      0.018935
      3           9      0.025286
      4           9      0.031439
      5           9      0.037389
      6           9      0.043126
      7           9      0.048639
      8           9      0.053913
      9           9      0.058925
      0          10      0.006167
      1          10      0.012888
      2          10      0.019420
      3          10      0.025759
      4          10      0.031900
      5          10      0.037837
      6          10      0.043562
      7          10      0.049062
      8          10      0.054321
      9          10      0.059317

     Rotational constants for vibrational quantum number  0
     B= 0.562800E+01 cm-1     D= 0.311369E-03 cm-1
     Observed and computed term values (cm-1)
       3        0.337572E+02        0.337568E+02        0.382008E-03
       4        0.787317E+02        0.787310E+02        0.651698E-03
       5        0.134893E+03        0.134893E+03        0.679403E-03
       6        0.202205E+03        0.202205E+03        0.395911E-03
       7        0.280622E+03        0.280622E+03       -0.145739E-03
       8        0.370091E+03        0.370092E+03       -0.683767E-03
       9        0.470554E+03        0.470555E+03       -0.720845E-03
      10        0.581945E+03        0.581945E+03        0.682618E-03

     Rotational constants for vibrational quantum number  1
     B= 0.550152E+01 cm-1     D= 0.308954E-03 cm-1
     Observed and computed term values (cm-1)
       3        0.329984E+02        0.329980E+02        0.373560E-03
       4        0.769614E+02        0.769608E+02        0.637691E-03
       5        0.131859E+03        0.131859E+03        0.665269E-03
       6        0.197655E+03        0.197654E+03        0.388735E-03
       7        0.274304E+03        0.274304E+03       -0.139628E-03
       8        0.361754E+03        0.361755E+03       -0.675996E-03
       9        0.459947E+03        0.459948E+03       -0.702198E-03
      10        0.568817E+03        0.568817E+03        0.667806E-03

     Rotational constants for vibrational quantum number  2
     B= 0.537405E+01 cm-1     D= 0.307101E-03 cm-1
     Observed and computed term values (cm-1)
       3        0.322336E+02        0.322332E+02        0.362969E-03
       4        0.751771E+02        0.751765E+02        0.619578E-03
       5        0.128801E+03        0.128800E+03        0.646321E-03
       6        0.193068E+03        0.193068E+03        0.377600E-03
       7        0.267935E+03        0.267935E+03       -0.135726E-03
       8        0.353349E+03        0.353350E+03       -0.656728E-03
       9        0.449253E+03        0.449253E+03       -0.682061E-03
      10        0.555580E+03        0.555580E+03        0.648714E-03

     Rotational constants for vibrational quantum number  3
     B= 0.524499E+01 cm-1     D= 0.305956E-03 cm-1
     Observed and computed term values (cm-1)
       3        0.314593E+02        0.314589E+02        0.341689E-03
       4        0.733705E+02        0.733699E+02        0.580256E-03
       5        0.125704E+03        0.125704E+03        0.614342E-03
       6        0.188423E+03        0.188423E+03        0.363234E-03
       7        0.261484E+03        0.261485E+03       -0.125325E-03
       8        0.344836E+03        0.344837E+03       -0.624700E-03
       9        0.438420E+03        0.438420E+03       -0.652168E-03
      10        0.542170E+03        0.542170E+03        0.618118E-03

     Rotational constants for vibrational quantum number  4
     B= 0.511357E+01 cm-1     D= 0.305777E-03 cm-1
     Observed and computed term values (cm-1)
       3        0.306708E+02        0.306704E+02        0.353695E-03
       4        0.715306E+02        0.715300E+02        0.556061E-03
       5        0.122550E+03        0.122549E+03        0.584939E-03
       6        0.183692E+03        0.183692E+03        0.343322E-03
       7        0.254914E+03        0.254914E+03       -0.122719E-03
       8        0.336163E+03        0.336163E+03       -0.597156E-03
       9        0.427381E+03        0.427382E+03       -0.620914E-03
      10        0.528504E+03        0.528504E+03        0.590384E-03

     Rotational constants for vibrational quantum number  5
     B= 0.497877E+01 cm-1     D= 0.306888E-03 cm-1
     Observed and computed term values (cm-1)
       3        0.298619E+02        0.298616E+02        0.316174E-03
       4        0.696432E+02        0.696426E+02        0.522396E-03
       5        0.119314E+03        0.119314E+03        0.546535E-03
       6        0.178838E+03        0.178838E+03        0.319584E-03
       7        0.248171E+03        0.248171E+03       -0.115088E-03
       8        0.327261E+03        0.327262E+03       -0.556267E-03
       9        0.416051E+03        0.416051E+03       -0.577361E-03
      10        0.514473E+03        0.514473E+03        0.549363E-03

     Rotational constants for vibrational quantum number  6
     B= 0.483925E+01 cm-1     D= 0.309785E-03 cm-1
     Observed and computed term values (cm-1)
       3        0.290246E+02        0.290244E+02        0.274955E-03
       4        0.676893E+02        0.676888E+02        0.468959E-03
       5        0.115964E+03        0.115964E+03        0.488600E-03
       6        0.173812E+03        0.173812E+03        0.284708E-03
       7        0.241188E+03        0.241188E+03       -0.103494E-03
       8        0.318041E+03        0.318041E+03       -0.496297E-03
       9        0.404311E+03        0.404311E+03       -0.513984E-03
      10        0.499932E+03        0.499931E+03        0.489557E-03

     Rotational constants for vibrational quantum number  7
     B= 0.469314E+01 cm-1     D= 0.315255E-03 cm-1
     Observed and computed term values (cm-1)
       3        0.281477E+02        0.281475E+02        0.226865E-03
       4        0.656425E+02        0.656421E+02        0.386781E-03
       5        0.112454E+03        0.112454E+03        0.402821E-03
       6        0.168545E+03        0.168544E+03        0.234718E-03
       7        0.233869E+03        0.233869E+03       -0.849687E-04
       8        0.308373E+03        0.308374E+03       -0.408553E-03
       9        0.391999E+03        0.391999E+03       -0.425404E-03
      10        0.484677E+03        0.484676E+03        0.404358E-03

     Rotational constants for vibrational quantum number  8
     B= 0.453783E+01 cm-1     D= 0.324479E-03 cm-1
     Observed and computed term values (cm-1)
       3        0.272154E+02        0.272153E+02        0.150308E-03
       4        0.634662E+02        0.634660E+02        0.254944E-03
       5        0.108721E+03        0.108721E+03        0.262970E-03
       6        0.162941E+03        0.162941E+03        0.148716E-03
       7        0.226080E+03        0.226080E+03       -0.440424E-04
       8        0.298083E+03        0.298083E+03       -0.275248E-03
       9        0.378888E+03        0.378888E+03       -0.279364E-03
      10        0.468425E+03        0.468424E+03        0.266336E-03

     Rotational constants for vibrational quantum number  9
     B= 0.436956E+01 cm-1     D= 0.339493E-03 cm-1
     Observed and computed term values (cm-1)
       3        0.262051E+02        0.262051E+02        0.300815E-04
       4        0.611073E+02        0.611072E+02        0.493761E-04
       5        0.104674E+03        0.104674E+03        0.484121E-04
       6        0.156864E+03        0.156864E+03        0.244283E-04
       7        0.217629E+03        0.217629E+03       -0.147516E-04
       8        0.286912E+03        0.286912E+03       -0.482962E-04
       9        0.364647E+03        0.364647E+03       -0.426770E-04
      10        0.450762E+03        0.450762E+03        0.442013E-04

     Rotational constants B(nv) and D(nv) in cm-1
       1        0.562800E+01        0.311369E-03
       2        0.550152E+01        0.308954E-03
       3        0.537405E+01        0.307101E-03
       4        0.524499E+01        0.305956E-03
       5        0.511357E+01        0.305777E-03
       6        0.497877E+01        0.306888E-03
       7        0.483925E+01        0.309785E-03
       8        0.469314E+01        0.315255E-03
       9        0.453783E+01        0.324479E-03
      10        0.436956E+01        0.339493E-03

     Spectroscopic constants De= 0.300925E-03 cm-1  Betae= 0.251609E-05 cm-1
     Observed and computed D values
       0        0.311369E-03        0.302184E-03        0.918556E-05
       1        0.308954E-03        0.304700E-03        0.425482E-05
       2        0.307101E-03        0.307216E-03       -0.114250E-06
       3        0.305956E-03        0.309732E-03       -0.377534E-05
       4        0.305777E-03        0.312248E-03       -0.647058E-05
       5        0.306888E-03        0.314764E-03       -0.787604E-05
       6        0.309785E-03        0.317280E-03       -0.749457E-05
       7        0.315255E-03        0.319796E-03       -0.454142E-05
       8        0.324479E-03        0.322312E-03        0.216688E-05
       9        0.339493E-03        0.324828E-03        0.146649E-04

     Spectroscopic constants Be,Alphae and Gammae
     Be= 0.568017E+01 cm-1    Alphae= 0.114672E+00 cm-1    Gammae=-0.236821E-02
     Observed and computed B values
       0        0.562800E+01        0.562224E+01        0.575948E-02
       1        0.550152E+01        0.550283E+01       -0.131219E-02
       2        0.537405E+01        0.537869E+01       -0.464017E-02
       3        0.524499E+01        0.524981E+01       -0.481848E-02
       4        0.511357E+01        0.511619E+01       -0.262246E-02
       5        0.497877E+01        0.497784E+01        0.934648E-03
       6        0.483925E+01        0.483474E+01        0.450618E-02
       7        0.469314E+01        0.468692E+01        0.621909E-02
       8        0.453783E+01        0.453435E+01        0.347127E-02
       9        0.436956E+01        0.437705E+01       -0.749737E-02

     Vibrational constants we  = 0.153534E+04 cm-1
                           wexe=-0.205633E+02 cm-1
                           weye=-0.185465E+00 cm-1
     Observed and computed band origins
       0        0.771470E+03        0.762505E+03        0.896473E+01
       1        0.225976E+04        0.225611E+04        0.364142E+01
       2        0.370655E+04        0.370693E+04       -0.381696E+00
       3        0.511117E+04        0.511383E+04       -0.266246E+01
       4        0.647269E+04        0.647572E+04       -0.303010E+01
       5        0.778979E+04        0.779147E+04       -0.167222E+01
       6        0.906072E+04        0.905997E+04        0.755904E+00
       7        0.102831E+05        0.102801E+05        0.297487E+01
       8        0.114536E+05        0.114508E+05        0.284191E+01
       9        0.125679E+05        0.125709E+05       -0.297053E+01


     Spectroscopic constants for BeD 


     Range of J-values used in fit  2 10
     Range of v-values used in fit  0  9



     Re(a)                 1.3412
     De(ev)                2.1962
     D0(ev)                2.1005
     we(cm-1)        0.153534E+04
     wexe(cm-1)     -0.205633E+02
     weye(cm-1)     -0.185465E+00
     Be(cm-1)        0.568017E+01
     Alphae(cm-1)    0.114672E+00
     Gammae(cm-1)   -0.236821E-02
     Dele(cm-1)      0.300925E-03
     Betae(cm-1)     0.251609E-05


     Max deviation in term values is  0.34E+02 cm(-1)


     Term values(observed and computed) in cm(-1)

 J-value         2                     3                     4                     5                     6

 v-value
     0    771.47    796.23      805.23    829.93      850.20    874.83      906.36    930.90      973.68    998.11
     1   2259.76   2289.12     2292.75   2322.10     2336.72   2366.05     2391.62   2420.93     2457.41   2486.70
     2   3706.55   3739.19     3738.78   3771.43     3781.72   3814.38     3835.35   3868.01     3899.61   3932.29
     3   5111.17   5145.32     5142.63   5176.79     5184.54   5218.71     5236.87   5271.05     5299.59   5333.78
     4   6472.69   6506.40     6503.36   6537.07     6544.22   6577.92     6595.24   6628.92     6656.38   6690.05
     5   7789.79   7821.32     7819.66   7851.15     7859.44   7890.90     7909.11   7940.52     7968.63   7999.98
     6   9060.72   9088.97     9089.75   9117.94     9128.41   9156.54     9176.69   9204.73     9234.54   9262.47
     7  10283.09  10308.22    10311.23  10336.31    10348.73  10373.72    10395.54  10420.43    10451.63  10476.40
     8  11453.62  11477.98    11480.84  11505.15    11517.09  11541.34    11562.34  11586.52    11616.56  11640.66
     9  12567.89  12597.12    12594.10  12623.34    12629.00  12658.28    12672.57  12701.88    12724.76  12754.13

 J-value         7                     8                     9                    10

 v-value
     0   1052.09   1076.40     1141.56   1165.74     1242.02   1266.06     1353.42   1377.30
     1   2534.06   2563.32     2621.51   2650.74     2719.70   2748.90     2828.57   2857.74
     2   3974.48   4007.17     4059.90   4092.60     4155.80   4188.52     4262.13   4294.87
     3   5372.66   5406.85     5456.01   5490.21     5549.59   5583.81     5653.34   5687.56
     4   6727.60   6761.24     6808.85   6842.46     6900.07   6933.64     7001.19   7034.72
     5   8037.97   8069.24     8117.06   8148.24     8205.84   8236.92     8304.27   8335.22
     6   9301.91   9329.72     9378.76   9406.43     9465.03   9492.53     9560.66   9587.95
     7  10516.95  10541.58    10591.46  10615.91    10675.08  10699.34    10767.76  10791.80
     8  11679.70  11703.69    11751.71  11775.58    11832.51  11856.26    11922.05  11945.66
     9  12785.52  12814.96    12854.81  12884.33    12932.54  12962.17    13018.66  13048.41


     observed G-values in cm(-1)

     v      G(v)     deltaG(v+1/2)
     0     771.47
                       1488.29
     1    2259.76
                       1446.79
     2    3706.55
                       1404.62
     3    5111.17
                       1361.52
     4    6472.69
                       1317.11
     5    7789.79
                       1270.93
     6    9060.72
                       1222.36
     7   10283.09
                       1170.54
     8   11453.62
                       1114.27
     9   12567.89
--- Stop Module: vibrot at Thu Oct 27 14:20:22 2022 /rc=_RC_ALL_IS_WELL_ ---
*** files: li2.VibPlt0 li2.VibWvs xmldump
    saved to directory /Users/arpitarunkumaar

.##################.
.# Happy landing! #.
.##################.

    Timing: Wall=0.05 User=0.04 System=0.01
