   This run of MOLCAS is using the pymolcas driver

                             OPE
                             OPE          NMOL  CASOP  ENMOLC A   SO
                 OPE        NMOLC        AS  OP EN  MO LC     AS  OP
                OPENM       OL CA        SO  PE NM  OL CA     SOP EN
                OP EN      MO   LC       AS  OP ENMOL  CASO   PENMOL
                OP  EN     MO   LC       AS  OP EN     MO     LC ASO
               OP   E  NMOL  C  AS       OP  EN MO     LC     AS  OP
               OP  E   NMO   LC AS        OPEN  MO     LCASOP EN   M
               O  PEN   MO  LCA  SO
            OPE   NMO   L   CAS    OP
        OPENMOL  CASOP     ENMOL   CASOPE
     OPENMOLCA   SOPENMOLCASOPEN   MOLCASOPE
    OPENMOLCAS   OP           EN   MOL    CAS
    OPENMOLCAS       OP  ENM        O     LCA
    OPENMOLCAS    OPEN  MOLCASO     P  E  NMO
    OPENMOLCAS     OP               E  N  MOL
    OPENMOLCA   SO           PENM   O  L  CAS    OPEN    MO    LCAS
    OPENMOLCA   SOP           ENM   O  L  CAS   OP  EN  MOLC  AS   O
    OPENMOLCA   SOPE           NM      O  LCA   S      OP  EN MO
    OPENMOLC                AS         O  PEN   M      OL  CA  SOPE
    OPENMO        LCASOPE  NMOL        C  ASO   P      ENMOLC     AS
    OPE     NMO      LCA  SO     P     E   NM   OL  CA SO  PE N   MO
          OPENMOLCA            SOPE   NMO        LCAS  O    P  ENMO
     OPENMOLCASOPENMOLCASOPENMOLCASOPENMOLCA
        OPENMOLCASOPENMOLCASOPENMOLCASOPE
            OPENMOLCASOPENMOLCASOPENM
               OPENMOLCASOPENMOLCA        version: v20.10 ?
                   OPENMOLCASO
                       OPE                tag:

 OpenMolcas is free software; you can redistribute it and/or modify it
 under the terms of the GNU Lesser General Public License version 2.1.
 OpenMolcas is distributed in the hope that it will be useful, but it
 is provided "as is" and without any express or implied warranties.
 For more details see the full text of the license in the file
 LICENSE or in <http://www.gnu.org/licenses/>.

                 Copyright (C) The OpenMolcas Authors
           For the author list and the recommended citation,
                   consult the file CONTRIBUTORS.md

           *************************************************
           * pymolcas version py2.13                       *
           *   build df7b0ad5c844738454f9b0a3ade4831c      *
           *   (after the EMIL interpreter by V. Veryazov) *
           *************************************************

configuration info
------------------
Host name: build-node.computecanada.ca (Linux)
C Compiler ID: Intel
C flags: -O2 -xCore-AVX512 -ftz -fp-speculation=safe -fp-model source -std=gnu99 -qopenmp
Fortran Compiler ID: Intel
Fortran flags: -O2 -xCore-AVX512 -ftz -fp-speculation=safe -fp-model source  -fpp -i8 -r8 -heap-arrays -qopenmp
Definitions: _MOLCAS_;_I8_;_LINUX_;_GA_;_MOLCAS_MPP_;SCALAPACK;_MKL_;_FDE_
Parallel: ON (GA=ON)


   -------------------------------------------------------------------------------------------------------------------------------------
  |
  |           Project: Li2_A
  |    Submitted from: /home/nike/LEVEL_arpit/LEVEL_2022/test_suite/vibrot/Li2
  |      Scratch area: /tmp/Li2_A
  |   Save outputs to: /home/nike/LEVEL_arpit/LEVEL_2022/test_suite/vibrot/Li2
  |            Molcas: /cvmfs/soft.computecanada.ca/easybuild/software/2020/avx512/MPI/intel2020/openmpi4/openmolcas/20.10
  |
  | Scratch area is NOT empty
  |
  |    MOLCAS_DRIVER = /cvmfs/soft.computecanada.ca/easybuild/software/2020/avx512/MPI/intel2020/openmpi4/openmolcas/20.10/sbin/pymolcas
  |    MOLCAS_NPROCS = 1
  |    MOLCAS_SOURCE = /cvmfs/soft.computecanada.ca/easybuild/software/2020/avx512/MPI/intel2020/openmpi4/openmolcas/20.10
  | MOLCAS_STRUCTURE = 0
  |
   -------------------------------------------------------------------------------------------------------------------------------------

++ ---------   Input file   ---------

&VIBROT
RoVibrational spectrum
NOSPectroscopic
Title = Vib-Rot spectrum for Li2(A)
Atoms = 6 Li  6 Li
Potential
   2.1164931678771977       0.99284037898566524
   2.1283039556443692       0.94418091506711022
   2.1401147434115413       0.89847420558856483
   2.1519255311787129       0.85551265056376757
   2.1637363189458849       0.81510498172758949
   2.1755471067130570       0.77707485158068856
   2.1873578944802285       0.74125955442759461
   2.1991686822474006       0.70750886617083986
   2.2109794700145722       0.67568399103749277
   2.2227902577817442       0.64565660466616526
   2.2346010455489163       0.61730798409490573
   2.2464118333160878       0.59052821617997731
   2.2582226210832599       0.56521547685325468
   2.2700334088504315       0.54127537441098317
   2.2818441966176035       0.51862035072148716
   2.2936549843847756       0.49716913486258046
   2.3054657721519471       0.47684624425430655
   2.3172765599191192       0.45758152884622044
   2.3290873476862908       0.43930975436409159
   2.3408981354534628       0.42197022101319076
   2.3527089232206349       0.40550641439322221
   2.3645197109878064       0.38986568569413799
   2.3763304987549785       0.37499895852932214
   2.3881412865221501       0.36086046001546757
   2.3999520742893221       0.34740747393918703
   2.4117628620564941       0.33460011405526247
   2.4235736498236657       0.32240111574672103
   2.4353844375908378       0.31077564444312400
   2.4471952253580094       0.29969111934343196
   2.4590060131251814       0.28911705112456293
   2.4708168008923534       0.27902489243829820
   2.4826275886595250       0.26938790010920860
   2.4944383764266971       0.26018100804473338
   2.5062491641938687       0.25138070995867146
   2.5180599519610407       0.24296495108947089
   2.5298707397282127       0.23491302816810422
   2.5416815274953843       0.22720549695680559
   2.5534923152625564       0.21982408673903903
   2.5653031030297280       0.21275162119603644
   2.5771138907969000       0.20597194515412320
   2.5889246785640720       0.19946985673196138
   2.6007354663312436       0.19323104445668210
   2.6125462540984157       0.18724202895573500
   2.6243570418655873       0.18149010886373104
   2.6361678296327593       0.17596331061463599
   2.6479786173999313       0.17065034181701139
   2.6597894051671029       0.16554054793536410
   2.6716001929342750       0.16062387202352060
   2.6834109807014466       0.15589081727693746
   2.6952217684686186       0.15133241219000082
   2.7070325562357906       0.14694017812152199
   2.7188433440029622       0.14270609908788937
   2.7306541317701343       0.13862259361765650
   2.7424649195373059       0.13468248851461051
   2.7542757073044779       0.13087899438865741
   2.7660864950716499       0.12720568282477401
   2.7778972828388215       0.12365646507070437
   2.7897080706059936       0.12022557213308817
   2.8015188583731652       0.11690753618061005
   2.8133296461403372       0.11369717316024142
   2.8251404339075092       0.11058956654011808
   2.8345890641212463       0.10817432338618853
   2.9526969417929649        8.2451127754621392E-002
   3.0708048194646835        6.2882868104191220E-002
   3.1889126971364021        4.7360513745319639E-002
   3.3070205748081207        3.4592067503461013E-002
   3.4251284524798393        2.3783015896560910E-002
   3.5432363301515579        1.4445100719231510E-002
   3.6613442078232765        6.2770279667880699E-003
   3.7794520854949951       -9.1144031583910966E-004
   3.8975599631667137       -7.2473424684960644E-003
   4.0156678408384323       -1.2823508180599968E-002
   4.1337757185101509       -1.7714932806062775E-002
   4.2518835961818695       -2.1987117424408627E-002
   4.3699914738535881       -2.5699722897986436E-002
   4.4880993515253067       -2.8907829952680274E-002
   4.6062072291970253       -3.1662211816082815E-002
   4.7243151068687439       -3.4009356685152245E-002
   4.8424229845404625       -3.5991539199905657E-002
   4.9605308622121811       -3.7647003210236014E-002
   5.0786387398838997       -3.9010224339353750E-002
   5.1967466175556183       -4.0112207243941704E-002
   5.3148544952273369       -4.0980788936792356E-002
   5.4329623728990555       -4.1640936561981277E-002
   5.5510702505707741       -4.2115035318513072E-002
   5.6691781282424927       -4.2423161794866451E-002
   5.7872860059142113       -4.2583335898620220E-002
   5.9053938835859299       -4.2611745234121472E-002
   6.0235017612576485       -4.2522939788940992E-002
   6.1416096389293671       -4.2329999905559079E-002
   6.2597175166010857       -4.2044683963412974E-002
   6.3778253942728043       -4.1677562521062111E-002
   6.4959332719445229       -4.1238143295915519E-002
   6.6140411496162415       -4.0734987972850127E-002
   6.7321490272879601       -4.0175819241119404E-002
   6.8502569049596786       -3.9567615687867465E-002
   6.9683647826313972       -3.8916693176291449E-002
   7.0864726603031158       -3.8228773265674899E-002
   7.2045805379748344       -3.7509041025256810E-002
   7.3226884156465530       -3.6762195485018606E-002
   7.4407962933182716       -3.5992495732563662E-002
   7.5589041709899902       -3.5203804589552946E-002
   7.6770120486617088       -3.4399630433979811E-002
   7.7951199263334274       -3.3583166614160033E-002
   7.9132278040051460       -3.2757327353606182E-002
   8.0313356816768646       -3.1924779122878791E-002
   8.1494435593485832       -3.1087966980665779E-002
   8.2675514370203018       -3.0249136080488657E-002
   8.3856593146920204       -2.9410349134660903E-002
   8.5037671923637390       -2.8573500953409998E-002
   8.6218750700354576       -2.7740331189127290E-002
   8.7399829477071762       -2.6912436173377335E-002
   8.8580908253788948       -2.6091280356371930E-002
   8.9761987030506134       -2.5278207472443536E-002
   9.0943065807223320       -2.4474451258218656E-002
   9.2124144583940506       -2.3681145392216097E-002
   9.3305223360657692       -2.2899332307181001E-002
   9.4486302137374878       -2.2129970616635981E-002
   9.5667380914092064       -2.1373941045288950E-002
   9.6848459690809250       -2.0632050909906295E-002
   9.8029538467526436       -1.9905037325559441E-002
   9.9210617244243622       -1.9193569391499320E-002
   10.039169602096081       -1.8498249637433746E-002
   10.157277479767799       -1.7819614993288220E-002
Scale
Step = 0.0000001
Grid  = 500
Range = 0.4 500.0
Vibrations = 200
Rotations  = 0 0
Orbital    = 0

-- ----------------------------------

--- Start Module: vibrot at Thu Oct 27 22:00:57 2022 ---
 
()()()()()()()()()()()()()()()()()()()()()()()()()()()()()()()()()()()()()()()()()()()()()()()()()()

                                              &VIBROT

                       only a single process is used, running in SERIAL mode
                      available to each process: 2.0 GB of memory, 40 threads
                                            pid: 186188
()()()()()()()()()()()()()()()()()()()()()()()()()()()()()()()()()()()()()()()()()()()()()()()()()()
 

 Vibration-Rotation spectrum for the LiLi molecule.
 Vib-Rot spectrum for Li2(A)                                                    
  

 Rotational quantum number range   0  0
 Electronic angular momentum       0
 Vibrational quantum number range  0199
 Mass of atom   6 Li   0.109649D+05 au
 Mass of atom   6 Li   0.109649D+05 au
 Reduced mass          0.548245D+04 au

 Statistics for numerical integration
 Number of steps           499
 Step length               0.014319
 Radial integration range  0.400000500.000000 au
 logarithmic range        -0.916291  6.214608

 Spectroscopic constants will not be computed
 Matrix elements of operators will not be computed

 Potential read from input
       R(au)     E(au)
     2.116493    0.992840
     2.128304    0.944181
     2.140115    0.898474
     2.151926    0.855513
     2.163736    0.815105
     2.175547    0.777075
     2.187358    0.741260
     2.199169    0.707509
     2.210979    0.675684
     2.222790    0.645657
     2.234601    0.617308
     2.246412    0.590528
     2.258223    0.565215
     2.270033    0.541275
     2.281844    0.518620
     2.293655    0.497169
     2.305466    0.476846
     2.317277    0.457582
     2.329087    0.439310
     2.340898    0.421970
     2.352709    0.405506
     2.364520    0.389866
     2.376330    0.374999
     2.388141    0.360860
     2.399952    0.347407
     2.411763    0.334600
     2.423574    0.322401
     2.435384    0.310776
     2.447195    0.299691
     2.459006    0.289117
     2.470817    0.279025
     2.482628    0.269388
     2.494438    0.260181
     2.506249    0.251381
     2.518060    0.242965
     2.529871    0.234913
     2.541682    0.227205
     2.553492    0.219824
     2.565303    0.212752
     2.577114    0.205972
     2.588925    0.199470
     2.600735    0.193231
     2.612546    0.187242
     2.624357    0.181490
     2.636168    0.175963
     2.647979    0.170650
     2.659789    0.165541
     2.671600    0.160624
     2.683411    0.155891
     2.695222    0.151332
     2.707033    0.146940
     2.718843    0.142706
     2.730654    0.138623
     2.742465    0.134682
     2.754276    0.130879
     2.766086    0.127206
     2.777897    0.123656
     2.789708    0.120226
     2.801519    0.116908
     2.813330    0.113697
     2.825140    0.110590
     2.834589    0.108174
     2.952697    0.082451
     3.070805    0.062883
     3.188913    0.047361
     3.307021    0.034592
     3.425128    0.023783
     3.543236    0.014445
     3.661344    0.006277
     3.779452   -0.000911
     3.897560   -0.007247
     4.015668   -0.012824
     4.133776   -0.017715
     4.251884   -0.021987
     4.369991   -0.025700
     4.488099   -0.028908
     4.606207   -0.031662
     4.724315   -0.034009
     4.842423   -0.035992
     4.960531   -0.037647
     5.078639   -0.039010
     5.196747   -0.040112
     5.314854   -0.040981
     5.432962   -0.041641
     5.551070   -0.042115
     5.669178   -0.042423
     5.787286   -0.042583
     5.905394   -0.042612
     6.023502   -0.042523
     6.141610   -0.042330
     6.259718   -0.042045
     6.377825   -0.041678
     6.495933   -0.041238
     6.614041   -0.040735
     6.732149   -0.040176
     6.850257   -0.039568
     6.968365   -0.038917
     7.086473   -0.038229
     7.204581   -0.037509
     7.322688   -0.036762
     7.440796   -0.035992
     7.558904   -0.035204
     7.677012   -0.034400
     7.795120   -0.033583
     7.913228   -0.032757
     8.031336   -0.031925
     8.149444   -0.031088
     8.267551   -0.030249
     8.385659   -0.029410
     8.503767   -0.028574
     8.621875   -0.027740
     8.739983   -0.026912
     8.858091   -0.026091
     8.976199   -0.025278
     9.094307   -0.024474
     9.212414   -0.023681
     9.330522   -0.022899
     9.448630   -0.022130
     9.566738   -0.021374
     9.684846   -0.020632
     9.802954   -0.019905
     9.921062   -0.019194
    10.039170   -0.018498
    10.157277   -0.017820
 Generating plot file:VIBPLT0 

 Scaling parameter for potential:    4.033538

 extremum points
                        R(au)         Value
 Min point            5.873137     -0.042616
 Extrapolated value at infinity     0.018826


 Eigenstates

  Vib. q.n.   Rot. q.n.    Energy
      0           0      0.000627
      1           0      0.001867
      2           0      0.003091
      3           0      0.004298
      4           0      0.005487
      5           0      0.006661
      6           0      0.007817
      7           0      0.008957
      8           0      0.010079
      9           0      0.011185
     10           0      0.012274
     11           0      0.013346
     12           0      0.014402
     13           0      0.015440
     14           0      0.016461
     15           0      0.017464
     16           0      0.018451
     17           0      0.019420
     18           0      0.020371
     19           0      0.021305
     20           0      0.022220
     21           0      0.023118
     22           0      0.023998
     23           0      0.024859
     24           0      0.025702
     25           0      0.026528
     26           0      0.027336
     27           0      0.028128
     28           0      0.028904
     29           0      0.029663
     30           0      0.030407
     31           0      0.031136
     32           0      0.031850
     33           0      0.032548
     34           0      0.033233
     35           0      0.033903
     36           0      0.034559
     37           0      0.035201
     38           0      0.035830
     39           0      0.036445
     40           0      0.037047
     41           0      0.037637
     42           0      0.038214
     43           0      0.038778
     44           0      0.039330
     45           0      0.039870
     46           0      0.040398
     47           0      0.040915
     48           0      0.041420
     49           0      0.041913
     50           0      0.042395
     51           0      0.042866
     52           0      0.043327
     53           0      0.043776
     54           0      0.044214
     55           0      0.044642
     56           0      0.045060
     57           0      0.045467
     58           0      0.045863
     59           0      0.046249
     60           0      0.046625
     61           0      0.046991
     62           0      0.047347
     63           0      0.047692
     64           0      0.048026
     65           0      0.048351
     66           0      0.048664
     67           0      0.048966
     68           0      0.049256
     69           0      0.049531
     70           0      0.049793
     71           0      0.050055
     72           0      0.050291
     73           0      0.050414
     74           0      0.050675
     75           0      0.050988
     76           0      0.051250
     77           0      0.051312
     78           0      0.051641
     79           0      0.051973
     80           0      0.052304
     81           0      0.052530
     82           0      0.052633
     83           0      0.052960
     84           0      0.053284
     85           0      0.053604
     86           0      0.053919
     87           0      0.054055
     88           0      0.054229
     89           0      0.054534
     90           0      0.054833
     91           0      0.055126
     92           0      0.055413
     93           0      0.055694
     94           0      0.055787
     95           0      0.055967
     96           0      0.056235
     97           0      0.056495
     98           0      0.056748
     99           0      0.056994
    100           0      0.057233
    101           0      0.057465
    102           0      0.057689
    103           0      0.057709
    104           0      0.057907
    105           0      0.058117
    106           0      0.058320
    107           0      0.058515
    108           0      0.058703
    109           0      0.058885
    110           0      0.059059
    111           0      0.059226
    112           0      0.059386
    113           0      0.059539
    114           0      0.059686
    115           0      0.059811
    116           0      0.059825
    117           0      0.059958
    118           0      0.060085
    119           0      0.060205
    120           0      0.060319
    121           0      0.060427
    122           0      0.060528
    123           0      0.060624
    124           0      0.060713
    125           0      0.060797
    126           0      0.060876
    127           0      0.060948
    128           0      0.061016
    129           0      0.061078
    130           0      0.061135
    131           0      0.061186
    132           0      0.061233
    133           0      0.061275
    134           0      0.061312
    135           0      0.061344
    136           0      0.061372
    137           0      0.061395
    138           0      0.061413
    139           0      0.061427
    140           0      0.061436
    141           0      0.061441
 ###############################################################################
 ###############################################################################
 ###                                                                         ###
 ###                                                                         ###
 ###    Location: VibRot                                                     ###
 ###                                                                         ###
 ###                                                                         ###
 ###    Failed to find a state. Try decreasing STEP.                         ###
 ###                                                                         ###
 ###                                                                         ###
 ###############################################################################
 ###############################################################################
--- Stop Module: vibrot at Thu Oct 27 22:01:05 2022 /rc=_RC_NOT_CONVERGED_ ---
*** files: Li2_A.VibWvs xmldump
    saved to directory /home/nike/LEVEL_arpit/LEVEL_2022/test_suite/vibrot/Li2
--- Module vibrot spent 8 seconds ---

.#######################.
.# Convergence problem #.
.#######################.

    Timing: Wall=8.23 User=8.09 System=0.04
