   This run of MOLCAS is using the pymolcas driver

                             OPE
                             OPE          NMOL  CASOP  ENMOLC A   SO
                 OPE        NMOLC        AS  OP EN  MO LC     AS  OP
                OPENM       OL CA        SO  PE NM  OL CA     SOP EN
                OP EN      MO   LC       AS  OP ENMOL  CASO   PENMOL
                OP  EN     MO   LC       AS  OP EN     MO     LC ASO
               OP   E  NMOL  C  AS       OP  EN MO     LC     AS  OP
               OP  E   NMO   LC AS        OPEN  MO     LCASOP EN   M
               O  PEN   MO  LCA  SO
            OPE   NMO   L   CAS    OP
        OPENMOL  CASOP     ENMOL   CASOPE
     OPENMOLCA   SOPENMOLCASOPEN   MOLCASOPE
    OPENMOLCAS   OP           EN   MOL    CAS
    OPENMOLCAS       OP  ENM        O     LCA
    OPENMOLCAS    OPEN  MOLCASO     P  E  NMO
    OPENMOLCAS     OP               E  N  MOL
    OPENMOLCA   SO           PENM   O  L  CAS    OPEN    MO    LCAS
    OPENMOLCA   SOP           ENM   O  L  CAS   OP  EN  MOLC  AS   O
    OPENMOLCA   SOPE           NM      O  LCA   S      OP  EN MO
    OPENMOLC                AS         O  PEN   M      OL  CA  SOPE
    OPENMO        LCASOPE  NMOL        C  ASO   P      ENMOLC     AS
    OPE     NMO      LCA  SO     P     E   NM   OL  CA SO  PE N   MO
          OPENMOLCA            SOPE   NMO        LCAS  O    P  ENMO
     OPENMOLCASOPENMOLCASOPENMOLCASOPENMOLCA
        OPENMOLCASOPENMOLCASOPENMOLCASOPE
            OPENMOLCASOPENMOLCASOPENM
               OPENMOLCASOPENMOLCA        version: 22.10
                   OPENMOLCASO
<<<<<<< HEAD
                       OPE                tag: 449-ga124b5702-dirty
=======
                       OPE                tag: 262-g4fe9ba247
>>>>>>> b884b9b193b76d8fdd220937ebaf7a7677a5e98a

 OpenMolcas is free software; you can redistribute it and/or modify it
 under the terms of the GNU Lesser General Public License version 2.1.
 OpenMolcas is distributed in the hope that it will be useful, but it
 is provided "as is" and without any express or implied warranties.
 For more details see the full text of the license in the file
 LICENSE or in <http://www.gnu.org/licenses/>.

                 Copyright (C) The OpenMolcas Authors
           For the author list and the recommended citation,
                   consult the file CONTRIBUTORS.md

           *************************************************
           * pymolcas version py2.23                       *
           *   build d53e6f8e18683222a6e02cb84ce98eb3      *
           *   (after the EMIL interpreter by V. Veryazov) *
           *************************************************

configuration info
------------------
<<<<<<< HEAD
Host name: cedar1.cedar.computecanada.ca (Linux)
=======
Host name: cedar5.cedar.computecanada.ca (Linux)
>>>>>>> b884b9b193b76d8fdd220937ebaf7a7677a5e98a
C Compiler ID: GNU
C flags: -std=gnu99
Fortran Compiler ID: GNU
Fortran flags: -fno-aggressive-loop-optimizations -cpp -fdefault-integer-8 -fmax-stack-var-size=1048576
Definitions: _MOLCAS_;_I8_;_LINUX_
Parallel: OFF (GA=OFF)


   ------------------------------------------------------------------------------
  |
  |           Project: 016_Bohr_Hartree
  |    Submitted from: /home/nike/LEVEL/LEVEL_2022/test_suite/OMolcas_H2
  |      Scratch area: /tmp/016_Bohr_Hartree
  |   Save outputs to: /home/nike/LEVEL/LEVEL_2022/test_suite/OMolcas_H2
  |            Molcas: /home/nike/build_OpenMolcas_Deyan_Unit_Conversion
  |
<<<<<<< HEAD
  | Scratch area is empty
=======
  | Scratch area is NOT empty
>>>>>>> b884b9b193b76d8fdd220937ebaf7a7677a5e98a
  |
  |    MOLCAS_DRIVER = /home/nike/build_OpenMolcas_Deyan_Unit_Conversion/pymolcas
  |    MOLCAS_NPROCS = 1
  |    MOLCAS_SOURCE = /home/nike/OpenMolcas_Deyan_unit_conversion
  | MOLCAS_STRUCTURE = 0
  |
   ------------------------------------------------------------------------------

++ ---------   Input file   ---------

&VIBROT
  RoVibrational spectrum
<<<<<<< HEAD
  Title = H2 (^1 Pi_u)
  Atoms = 0 H 0 H
  Potential
    0.800 -0.42551985
    1.000 -0.57191384
    1.100 -0.61602598
    1.200 -0.64805116
    1.300 -0.67126306
    1.400 -0.68794049
    1.500 -0.69970706
    1.600 -0.70774314
    1.700 -0.71292179
    1.800 -0.71589877
    1.900 -0.71717290
    2.000 -0.71712800
    2.100 -0.71606216
    2.200 -0.71420874
    2.400 -0.70883728
    2.800 -0.69461676
    3.200 -0.67921291
    3.600 -0.66464735
    4.000 -0.65175468
    5.000 -0.62788932
    6.000 -0.61403297
    10.00 -0.59852060
  DistUnit = Bohr
  EnerUnit = Hartree
  Grid = 450
  Range = 0.4 5.0
  Vibrations = 3
  Rotations = 1 4
  Orbital = 1
  Observable
    Dipole Moment
    0.800 0.57938359
    1.000 0.62852037
    1.100 0.65216622
    1.200 0.67506184
    1.300 0.69709869
    1.400 0.71821433
    1.500 0.73833904
    1.600 0.75741713
    1.700 0.77538706
    1.800 0.79219774
    1.900 0.80778988
    2.000 0.82211035
    2.100 0.83510594
    2.200 0.84672733
    2.400 0.86565481
    2.800 0.88532063
    3.200 0.88056207
    3.600 0.85474708
    4.000 0.81515210
    5.000 0.70549066
    6.000 0.62103112
    10.00 0.46501146
  Plot  = 1.0 10.0 0.1
=======
  Title = H2 1Sg+ (spectroscopic units)
  Atoms = 0 H 0 H
  Potential
    0.800 -1.01861680
    1.000 -1.12334182
    1.100 -1.14893328
    1.200 -1.16386650
    1.300 -1.17132170
    1.400 -1.17348513
    1.500 -1.17189290
    1.600 -1.16764454
    1.700 -1.16153973
    1.800 -1.15416786
    1.900 -1.14596802
    2.000 -1.13727000
    2.100 -1.12832304
    2.200 -1.11931621
    2.400 -1.10166363
    2.800 -1.07005364
    3.200 -1.04530454
    3.600 -1.02767731
    4.000 -1.01612682
    5.000 -1.00367427
    6.000 -1.00077274
    10.00 -0.99997057
  enerunit = hartree
  Grid = 450
  Range = 0.4 5.0
  Vibrations = 3
  Rotations = 0 3
  Orbital = 0
>>>>>>> b884b9b193b76d8fdd220937ebaf7a7677a5e98a
  Scale

-- ----------------------------------

<<<<<<< HEAD
--- Start Module: vibrot at Tue Dec 27 10:22:49 2022 ---
=======
--- Start Module: vibrot at Tue Dec 20 07:55:22 2022 ---
>>>>>>> b884b9b193b76d8fdd220937ebaf7a7677a5e98a

()()()()()()()()()()()()()()()()()()()()()()()()()()()()()()()()()()()()()()()()()()()()()()()()()()

                                              &VIBROT

                                   only a single process is used
                       available to each process: 2.0 GB of memory, 1 thread?
<<<<<<< HEAD
                                             pid: 10637
=======
                                             pid: 56864
>>>>>>> b884b9b193b76d8fdd220937ebaf7a7677a5e98a
()()()()()()()()()()()()()()()()()()()()()()()()()()()()()()()()()()()()()()()()()()()()()()()()()()


 Vibration-Rotation spectrum for the HH   molecule.
<<<<<<< HEAD
 H2 (^1 Pi_u)                                                                    

 Rotational quantum number range   1  4
 Electronic angular momentum       1
=======
 H2 1Sg+ (spectroscopic units)                                                   

 Rotational quantum number range   0  3
 Electronic angular momentum       0
>>>>>>> b884b9b193b76d8fdd220937ebaf7a7677a5e98a
 Vibrational quantum number range  0  2
 Mass of atom   1 H     1837.152647 au
 Mass of atom   1 H     1837.152647 au
 Reduced mass            918.576324 au

 Statistics for numerical integration
 Number of steps           449
 Step length               0.005638
 Radial integration range  0.400000  5.000000 au
 logarithmic range        -0.916291  1.609438

 Spectroscopic constants will be computed
<<<<<<< HEAD
 Matrix elements of  1 operators will be computed
=======
 Matrix elements of operators will not be computed
>>>>>>> b884b9b193b76d8fdd220937ebaf7a7677a5e98a

 Distance provided in units of Bohr radii.
 No conversion.

 Energy provided in units of hartrees.
 No conversion.

 Potential read from input
       R(au)     E(au)
<<<<<<< HEAD
     0.800000   -0.425520
     1.000000   -0.571914
     1.100000   -0.616026
     1.200000   -0.648051
     1.300000   -0.671263
     1.400000   -0.687940
     1.500000   -0.699707
     1.600000   -0.707743
     1.700000   -0.712922
     1.800000   -0.715899
     1.900000   -0.717173
     2.000000   -0.717128
     2.100000   -0.716062
     2.200000   -0.714209
     2.400000   -0.708837
     2.800000   -0.694617
     3.200000   -0.679213
     3.600000   -0.664647
     4.000000   -0.651755
     5.000000   -0.627889
     6.000000   -0.614033
    10.000000   -0.598521
 Generating plot file:VIBPLT0 

 Scaling parameter for potential:    0.842799

 extremum points
                        R(au)         Value
 Min point         1.945079     -0.717296
 Extrapolated value at infinity    -0.596055
 Generating plot file:VIBPLT1 

 Input data for observables

       Dipole Moment     
     R(au)        Value
    0.8000      0.579384
    1.0000      0.628520
    1.1000      0.652166
    1.2000      0.675062
    1.3000      0.697099
    1.4000      0.718214
    1.5000      0.738339
    1.6000      0.757417
    1.7000      0.775387
    1.8000      0.792198
    1.9000      0.807790
    2.0000      0.822110
    2.1000      0.835106
    2.2000      0.846727
    2.4000      0.865655
    2.8000      0.885321
    3.2000      0.880562
    3.6000      0.854747
    4.0000      0.815152
    5.0000      0.705491
    6.0000      0.621031
   10.0000      0.465011
     Plot file
  Interpolated value at equilibrium for state 1:
    1.9451      0.814406
=======
     0.800000   -1.018617
     1.000000   -1.123342
     1.100000   -1.148933
     1.200000   -1.163866
     1.300000   -1.171322
     1.400000   -1.173485
     1.500000   -1.171893
     1.600000   -1.167645
     1.700000   -1.161540
     1.800000   -1.154168
     1.900000   -1.145968
     2.000000   -1.137270
     2.100000   -1.128323
     2.200000   -1.119316
     2.400000   -1.101664
     2.800000   -1.070054
     3.200000   -1.045305
     3.600000   -1.027677
     4.000000   -1.016127
     5.000000   -1.003674
     6.000000   -1.000773
    10.000000   -0.999971
 Generating plot file:VIBPLT0 

 Scaling parameter for potential:    0.576321

 extremum points
                        R(au)         Value
 Min point         1.402108     -1.173486
 Extrapolated value at infinity    -0.999941
>>>>>>> b884b9b193b76d8fdd220937ebaf7a7677a5e98a


 Eigenstates

  Vib. q.n.   Rot. q.n.    Energy
<<<<<<< HEAD
      0           1      0.004825
      1           1      0.013816
      2           1      0.022314
      0           2      0.005296
      1           2      0.014263
      2           2      0.022739
      0           3      0.005998
      1           3      0.014930
      2           3      0.023372
      0           4      0.006926
      1           4      0.015812
      2           4      0.024209

     Rotational constants for vibrational quantum number  0
     B= 0.259092E+02 cm-1     D= 0.165459E-01 cm-1
     Observed and computed term values (cm-1)
       2        0.103375E+03        0.103372E+03        0.316681E-02
       3        0.257435E+03        0.257437E+03       -0.221677E-02
       4        0.461005E+03        0.461005E+03        0.527802E-03

     Rotational constants for vibrational quantum number  1
     B= 0.246201E+02 cm-1     D= 0.158922E-01 cm-1
     Observed and computed term values (cm-1)
       2        0.982291E+02        0.982260E+02        0.308172E-02
       3        0.244609E+03        0.244612E+03       -0.215721E-02
       4        0.438013E+03        0.438012E+03        0.513620E-03

     Rotational constants for vibrational quantum number  2
     B= 0.233754E+02 cm-1     D= 0.152755E-01 cm-1
     Observed and computed term values (cm-1)
       2        0.932603E+02        0.932574E+02        0.298831E-02
       3        0.232225E+03        0.232227E+03       -0.209181E-02
       4        0.415809E+03        0.415809E+03        0.498051E-03

     Rotational constants B(nv) and D(nv) in cm-1
       1        0.259092E+02        0.165459E-01
       2        0.246201E+02        0.158922E-01
       3        0.233754E+02        0.152755E-01

     Spectroscopic constants De= 0.168574E-01 cm-1  Betae=-0.635213E-03 cm-1
     Observed and computed D values
       0        0.165459E-01        0.165398E-01        0.618692E-05
       1        0.158922E-01        0.159045E-01       -0.123738E-04
       2        0.152755E-01        0.152693E-01        0.618692E-05

     Spectroscopic constants Be,Alphae and Gammae
     Be= 0.265704E+02 cm-1    Alphae= 0.133359E+01 cm-1    Gammae= 0.222401E-01
     Observed and computed B values
       0        0.259092E+02        0.259092E+02        0.675016E-13
       1        0.246201E+02        0.246201E+02        0.259348E-12
       2        0.233754E+02        0.233754E+02        0.408562E-12

     Vibrational constants we  = 0.217901E+04 cm-1
                           wexe=-0.130530E+03 cm-1
                           weye= 0.170036E+02 cm-1
     Observed and computed band origins
       0        0.105900E+04        0.105900E+04       -0.909495E-11
       1        0.303222E+04        0.303222E+04       -0.877662E-10
       2        0.489741E+04        0.489741E+04       -0.118234E-09
=======
      0           0      0.009928
      1           0      0.028886
      2           0      0.046777
      0           1      0.010467
      1           1      0.029398
      2           1      0.047262
      0           2      0.011540
      1           2      0.030417
      2           2      0.048227
      0           3      0.013138
      1           3      0.031934
      2           3      0.049664

     Rotational constants for vibrational quantum number  0
     B= 0.592545E+02 cm-1     D= 0.446803E-01 cm-1
     Observed and computed term values (cm-1)
       1        0.118333E+03        0.118330E+03        0.285128E-02
       2        0.353917E+03        0.353918E+03       -0.158405E-02
       3        0.704620E+03        0.704620E+03        0.316809E-03

     Rotational constants for vibrational quantum number  1
     B= 0.562605E+02 cm-1     D= 0.428922E-01 cm-1
     Observed and computed term values (cm-1)
       1        0.112352E+03        0.112349E+03        0.267925E-02
       2        0.336017E+03        0.336019E+03       -0.148847E-02
       3        0.668950E+03        0.668949E+03        0.297694E-03

     Rotational constants for vibrational quantum number  2
     B= 0.532882E+02 cm-1     D= 0.409298E-01 cm-1
     Observed and computed term values (cm-1)
       1        0.106415E+03        0.106413E+03        0.247222E-02
       2        0.318254E+03        0.318256E+03       -0.137345E-02
       3        0.633565E+03        0.633565E+03        0.274691E-03

     Rotational constants B(nv) and D(nv) in cm-1
       1        0.592545E+02        0.446803E-01
       2        0.562605E+02        0.428922E-01
       3        0.532882E+02        0.409298E-01

     Spectroscopic constants De= 0.456470E-01 cm-1  Betae=-0.187527E-02 cm-1
     Observed and computed D values
       0        0.446803E-01        0.447094E-01       -0.290458E-04
       1        0.428922E-01        0.428341E-01        0.580916E-04
       2        0.409298E-01        0.409588E-01       -0.290458E-04

     Spectroscopic constants Be,Alphae and Gammae
     Be= 0.607596E+02 cm-1    Alphae= 0.301566E+01 cm-1    Gammae= 0.108451E-01
     Observed and computed B values
       0        0.592545E+02        0.592545E+02       -0.163425E-12
       1        0.562605E+02        0.562605E+02       -0.291323E-12
       2        0.532882E+02        0.532882E+02       -0.817124E-12

     Vibrational constants we  = 0.442750E+04 cm-1
                           wexe=-0.142436E+03 cm-1
                           weye= 0.562846E+01 cm-1
     Observed and computed band origins
       0        0.217884E+04        0.217884E+04       -0.936780E-10
       1        0.633976E+04        0.633976E+04       -0.763976E-09
       2        0.102665E+05        0.102665E+05       -0.223190E-08
>>>>>>> b884b9b193b76d8fdd220937ebaf7a7677a5e98a


     Spectroscopic constants for H H 


<<<<<<< HEAD
     Range of J-values used in fit  1  4
=======
     Range of J-values used in fit  0  3
>>>>>>> b884b9b193b76d8fdd220937ebaf7a7677a5e98a
     Range of v-values used in fit  0  2



<<<<<<< HEAD
     Re(a)                 1.0293
     De(ev)                2.7805
     D0(ev)                2.6492
     we(cm-1)        0.217901E+04
     wexe(cm-1)     -0.130530E+03
     weye(cm-1)      0.170036E+02
     Be(cm-1)        0.265704E+02
     Alphae(cm-1)    0.133359E+01
     Gammae(cm-1)    0.222401E-01
     Dele(cm-1)      0.168574E-01
     Betae(cm-1)    -0.635213E-03


     Max deviation in term values is  0.52E+02 cm(-1)
=======
     Re(a)                 0.7420
     De(ev)                4.7224
     D0(ev)                4.4523
     we(cm-1)        0.442750E+04
     wexe(cm-1)     -0.142436E+03
     weye(cm-1)      0.562846E+01
     Be(cm-1)        0.607596E+02
     Alphae(cm-1)    0.301566E+01
     Gammae(cm-1)    0.108451E-01
     Dele(cm-1)      0.456470E-01
     Betae(cm-1)    -0.187527E-02


     Max deviation in term values is  0.81E-02 cm(-1)
>>>>>>> b884b9b193b76d8fdd220937ebaf7a7677a5e98a


     Term values(observed and computed) in cm(-1)

<<<<<<< HEAD
 J-value         1                     2                     3                     4

 v-value
     0   1059.00   1110.75     1162.38   1213.86     1316.44   1367.53     1520.01   1570.57
     1   3032.22   3081.39     3130.45   3179.36     3276.83   3325.37     3470.23   3518.26
     2   4897.41   4944.10     4990.67   5037.11     5129.63   5175.71     5313.22   5358.81
=======
 J-value         0                     1                     2                     3

 v-value
     0   2178.84   2178.84     2297.18   2297.17     2532.76   2532.76     2883.46   2883.46
     1   6339.76   6339.76     6452.11   6452.11     6675.77   6675.78     7008.71   7008.71
     2  10266.46  10266.46    10372.87  10372.87    10584.71  10584.71    10900.02  10900.02
>>>>>>> b884b9b193b76d8fdd220937ebaf7a7677a5e98a


     observed G-values in cm(-1)

     v      G(v)     deltaG(v+1/2)
<<<<<<< HEAD
     0    1059.00
                       1973.22
     1    3032.22
                       1865.19
     2    4897.41

++ Matrix elements of observable: Dipole Moment
>>>> matrix elements over vibrational wave functions (atomic units) for rotational quantum number  1
     1  1    0.819981     2  1    0.007662     2  2    0.839692     3  1   -0.004304     3  2    0.005231     3  3    0.856460
>>>> matrix elements over vibrational wave functions (atomic units) for rotational quantum number  2
     1  1    0.820661     2  1    0.007499     2  2    0.840275     3  1   -0.004280     3  2    0.004977     3  3    0.856928
>>>> matrix elements over vibrational wave functions (atomic units) for rotational quantum number  3
     1  1    0.821670     2  1    0.007255     2  2    0.841139     3  1   -0.004242     3  2    0.004597     3  3    0.857618
>>>> matrix elements over vibrational wave functions (atomic units) for rotational quantum number  4
     1  1    0.822998     2  1    0.006930     2  2    0.842271     3  1    0.004193     3  2   -0.004089     3  3    0.858518

Temperature averaged observable:   8.205976E-01  at  300.000K

***
*** Warning, temperature weighting not converged with respect to rotational quantum numbers
***
*** Quotient 1.361E-01 should be small
***

--
--- Stop Module: vibrot at Tue Dec 27 10:22:50 2022 /rc=_RC_ALL_IS_WELL_ ---
*** files: 016_Bohr_Hartree.VibPlt1 016_Bohr_Hartree.VibPlt0 016_Bohr_Hartree.VibWvs xmldump
=======
     0    2178.84
                       4160.91
     1    6339.76
                       3926.70
     2   10266.46
--- Stop Module: vibrot at Tue Dec 20 07:55:22 2022 /rc=_RC_ALL_IS_WELL_ ---
*** files: 016_Bohr_Hartree.VibWvs xmldump
>>>>>>> b884b9b193b76d8fdd220937ebaf7a7677a5e98a
    saved to directory /home/nike/LEVEL/LEVEL_2022/test_suite/OMolcas_H2

.##################.
.# Happy landing! #.
.##################.

<<<<<<< HEAD
    Timing: Wall=0.20 User=0.02 System=0.02
=======
    Timing: Wall=0.09 User=0.02 System=0.05
>>>>>>> b884b9b193b76d8fdd220937ebaf7a7677a5e98a
